# vtk DataFile Version 3.0
#This file was generated by the deal.II library on 2012/5/30 at 15:29:21
ASCII
DATASET UNSTRUCTURED_GRID

POINTS 23040 double
0 0 0
0.25 0 0
0 0.25 0
0.25 0.25 0
0.25 0 0
0.5 0 0
0.25 0.25 0
0.5 0.25 0
0 0.25 0
0.25 0.25 0
0 0.5 0
0.25 0.5 0
0.25 0.25 0
0.5 0.25 0
0.25 0.5 0
0.5 0.5 0
0.5 0 0
0.75 0 0
0.5 0.25 0
0.75 0.25 0
0.75 0 0
1 0 0
0.75 0.25 0
1 0.25 0
0.5 0.25 0
0.75 0.25 0
0.5 0.5 0
0.75 0.5 0
0.75 0.25 0
1 0.25 0
0.75 0.5 0
1 0.5 0
0 0.5 0
0.25 0.5 0
0 0.75 0
0.25 0.75 0
0.25 0.5 0
0.5 0.5 0
0.25 0.75 0
0.5 0.75 0
0 0.75 0
0.25 0.75 0
0 1 0
0.25 1 0
0.25 0.75 0
0.5 0.75 0
0.25 1 0
0.5 1 0
0.5 0.5 0
0.75 0.5 0
0.5 0.75 0
0.75 0.75 0
0.75 0.5 0
1 0.5 0
0.75 0.75 0
1 0.75 0
0.5 0.75 0
0.75 0.75 0
0.5 1 0
0.75 1 0
0.75 0.75 0
1 0.75 0
0.75 1 0
1 1 0
1 0 0
1.25 0 0
1 0.25 0
1.25 0.25 0
1.25 0 0
1.5 0 0
1.25 0.25 0
1.5 0.25 0
1 0.25 0
1.25 0.25 0
1 0.5 0
1.25 0.5 0
1.25 0.25 0
1.5 0.25 0
1.25 0.5 0
1.5 0.5 0
1.5 0 0
1.75 0 0
1.5 0.25 0
1.75 0.25 0
1.75 0 0
2 0 0
1.75 0.25 0
2 0.25 0
1.5 0.25 0
1.75 0.25 0
1.5 0.5 0
1.75 0.5 0
1.75 0.25 0
2 0.25 0
1.75 0.5 0
2 0.5 0
1 0.5 0
1.25 0.5 0
1 0.75 0
1.25 0.75 0
1.25 0.5 0
1.5 0.5 0
1.25 0.75 0
1.5 0.75 0
1 0.75 0
1.25 0.75 0
1 1 0
1.25 1 0
1.25 0.75 0
1.5 0.75 0
1.25 1 0
1.5 1 0
1.5 0.5 0
1.75 0.5 0
1.5 0.75 0
1.75 0.75 0
1.75 0.5 0
2 0.5 0
1.75 0.75 0
2 0.75 0
1.5 0.75 0
1.75 0.75 0
1.5 1 0
1.75 1 0
1.75 0.75 0
2 0.75 0
1.75 1 0
2 1 0
2 0 0
2.25 0 0
2 0.25 0
2.25 0.25 0
2.25 0 0
2.5 0 0
2.25 0.25 0
2.5 0.25 0
2 0.25 0
2.25 0.25 0
2 0.5 0
2.25 0.5 0
2.25 0.25 0
2.5 0.25 0
2.25 0.5 0
2.5 0.5 0
2.5 0 0
2.75 0 0
2.5 0.25 0
2.75 0.25 0
2.75 0 0
3 0 0
2.75 0.25 0
3 0.25 0
2.5 0.25 0
2.75 0.25 0
2.5 0.5 0
2.75 0.5 0
2.75 0.25 0
3 0.25 0
2.75 0.5 0
3 0.5 0
2 0.5 0
2.25 0.5 0
2 0.75 0
2.25 0.75 0
2.25 0.5 0
2.5 0.5 0
2.25 0.75 0
2.5 0.75 0
2 0.75 0
2.25 0.75 0
2 1 0
2.25 1 0
2.25 0.75 0
2.5 0.75 0
2.25 1 0
2.5 1 0
2.5 0.5 0
2.75 0.5 0
2.5 0.75 0
2.75 0.75 0
2.75 0.5 0
3 0.5 0
2.75 0.75 0
3 0.75 0
2.5 0.75 0
2.75 0.75 0
2.5 1 0
2.75 1 0
2.75 0.75 0
3 0.75 0
2.75 1 0
3 1 0
3 0 0
3.25 0 0
3 0.25 0
3.25 0.25 0
3.25 0 0
3.5 0 0
3.25 0.25 0
3.5 0.25 0
3 0.25 0
3.25 0.25 0
3 0.5 0
3.25 0.5 0
3.25 0.25 0
3.5 0.25 0
3.25 0.5 0
3.5 0.5 0
3.5 0 0
3.75 0 0
3.5 0.25 0
3.75 0.25 0
3.75 0 0
4 0 0
3.75 0.25 0
4 0.25 0
3.5 0.25 0
3.75 0.25 0
3.5 0.5 0
3.75 0.5 0
3.75 0.25 0
4 0.25 0
3.75 0.5 0
4 0.5 0
3 0.5 0
3.25 0.5 0
3 0.75 0
3.25 0.75 0
3.25 0.5 0
3.5 0.5 0
3.25 0.75 0
3.5 0.75 0
3 0.75 0
3.25 0.75 0
3 1 0
3.25 1 0
3.25 0.75 0
3.5 0.75 0
3.25 1 0
3.5 1 0
3.5 0.5 0
3.75 0.5 0
3.5 0.75 0
3.75 0.75 0
3.75 0.5 0
4 0.5 0
3.75 0.75 0
4 0.75 0
3.5 0.75 0
3.75 0.75 0
3.5 1 0
3.75 1 0
3.75 0.75 0
4 0.75 0
3.75 1 0
4 1 0
4 0 0
4.25 0 0
4 0.25 0
4.25 0.25 0
4.25 0 0
4.5 0 0
4.25 0.25 0
4.5 0.25 0
4 0.25 0
4.25 0.25 0
4 0.5 0
4.25 0.5 0
4.25 0.25 0
4.5 0.25 0
4.25 0.5 0
4.5 0.5 0
4.5 0 0
4.75 0 0
4.5 0.25 0
4.75 0.25 0
4.75 0 0
5 0 0
4.75 0.25 0
5 0.25 0
4.5 0.25 0
4.75 0.25 0
4.5 0.5 0
4.75 0.5 0
4.75 0.25 0
5 0.25 0
4.75 0.5 0
5 0.5 0
4 0.5 0
4.25 0.5 0
4 0.75 0
4.25 0.75 0
4.25 0.5 0
4.5 0.5 0
4.25 0.75 0
4.5 0.75 0
4 0.75 0
4.25 0.75 0
4 1 0
4.25 1 0
4.25 0.75 0
4.5 0.75 0
4.25 1 0
4.5 1 0
4.5 0.5 0
4.75 0.5 0
4.5 0.75 0
4.75 0.75 0
4.75 0.5 0
5 0.5 0
4.75 0.75 0
5 0.75 0
4.5 0.75 0
4.75 0.75 0
4.5 1 0
4.75 1 0
4.75 0.75 0
5 0.75 0
4.75 1 0
5 1 0
5 0 0
5.25 0 0
5 0.25 0
5.25 0.25 0
5.25 0 0
5.5 0 0
5.25 0.25 0
5.5 0.25 0
5 0.25 0
5.25 0.25 0
5 0.5 0
5.25 0.5 0
5.25 0.25 0
5.5 0.25 0
5.25 0.5 0
5.5 0.5 0
5.5 0 0
5.75 0 0
5.5 0.25 0
5.75 0.25 0
5.75 0 0
6 0 0
5.75 0.25 0
6 0.25 0
5.5 0.25 0
5.75 0.25 0
5.5 0.5 0
5.75 0.5 0
5.75 0.25 0
6 0.25 0
5.75 0.5 0
6 0.5 0
5 0.5 0
5.25 0.5 0
5 0.75 0
5.25 0.75 0
5.25 0.5 0
5.5 0.5 0
5.25 0.75 0
5.5 0.75 0
5 0.75 0
5.25 0.75 0
5 1 0
5.25 1 0
5.25 0.75 0
5.5 0.75 0
5.25 1 0
5.5 1 0
5.5 0.5 0
5.75 0.5 0
5.5 0.75 0
5.75 0.75 0
5.75 0.5 0
6 0.5 0
5.75 0.75 0
6 0.75 0
5.5 0.75 0
5.75 0.75 0
5.5 1 0
5.75 1 0
5.75 0.75 0
6 0.75 0
5.75 1 0
6 1 0
6 0 0
6.25 0 0
6 0.25 0
6.25 0.25 0
6.25 0 0
6.5 0 0
6.25 0.25 0
6.5 0.25 0
6 0.25 0
6.25 0.25 0
6 0.5 0
6.25 0.5 0
6.25 0.25 0
6.5 0.25 0
6.25 0.5 0
6.5 0.5 0
6.5 0 0
6.75 0 0
6.5 0.25 0
6.75 0.25 0
6.75 0 0
7 0 0
6.75 0.25 0
7 0.25 0
6.5 0.25 0
6.75 0.25 0
6.5 0.5 0
6.75 0.5 0
6.75 0.25 0
7 0.25 0
6.75 0.5 0
7 0.5 0
6 0.5 0
6.25 0.5 0
6 0.75 0
6.25 0.75 0
6.25 0.5 0
6.5 0.5 0
6.25 0.75 0
6.5 0.75 0
6 0.75 0
6.25 0.75 0
6 1 0
6.25 1 0
6.25 0.75 0
6.5 0.75 0
6.25 1 0
6.5 1 0
6.5 0.5 0
6.75 0.5 0
6.5 0.75 0
6.75 0.75 0
6.75 0.5 0
7 0.5 0
6.75 0.75 0
7 0.75 0
6.5 0.75 0
6.75 0.75 0
6.5 1 0
6.75 1 0
6.75 0.75 0
7 0.75 0
6.75 1 0
7 1 0
7 0 0
7.25 0 0
7 0.25 0
7.25 0.25 0
7.25 0 0
7.5 0 0
7.25 0.25 0
7.5 0.25 0
7 0.25 0
7.25 0.25 0
7 0.5 0
7.25 0.5 0
7.25 0.25 0
7.5 0.25 0
7.25 0.5 0
7.5 0.5 0
7.5 0 0
7.75 0 0
7.5 0.25 0
7.75 0.25 0
7.75 0 0
8 0 0
7.75 0.25 0
8 0.25 0
7.5 0.25 0
7.75 0.25 0
7.5 0.5 0
7.75 0.5 0
7.75 0.25 0
8 0.25 0
7.75 0.5 0
8 0.5 0
7 0.5 0
7.25 0.5 0
7 0.75 0
7.25 0.75 0
7.25 0.5 0
7.5 0.5 0
7.25 0.75 0
7.5 0.75 0
7 0.75 0
7.25 0.75 0
7 1 0
7.25 1 0
7.25 0.75 0
7.5 0.75 0
7.25 1 0
7.5 1 0
7.5 0.5 0
7.75 0.5 0
7.5 0.75 0
7.75 0.75 0
7.75 0.5 0
8 0.5 0
7.75 0.75 0
8 0.75 0
7.5 0.75 0
7.75 0.75 0
7.5 1 0
7.75 1 0
7.75 0.75 0
8 0.75 0
7.75 1 0
8 1 0
8 0 0
8.25 0 0
8 0.25 0
8.25 0.25 0
8.25 0 0
8.5 0 0
8.25 0.25 0
8.5 0.25 0
8 0.25 0
8.25 0.25 0
8 0.5 0
8.25 0.5 0
8.25 0.25 0
8.5 0.25 0
8.25 0.5 0
8.5 0.5 0
8.5 0 0
8.75 0 0
8.5 0.25 0
8.75 0.25 0
8.75 0 0
9 0 0
8.75 0.25 0
9 0.25 0
8.5 0.25 0
8.75 0.25 0
8.5 0.5 0
8.75 0.5 0
8.75 0.25 0
9 0.25 0
8.75 0.5 0
9 0.5 0
8 0.5 0
8.25 0.5 0
8 0.75 0
8.25 0.75 0
8.25 0.5 0
8.5 0.5 0
8.25 0.75 0
8.5 0.75 0
8 0.75 0
8.25 0.75 0
8 1 0
8.25 1 0
8.25 0.75 0
8.5 0.75 0
8.25 1 0
8.5 1 0
8.5 0.5 0
8.75 0.5 0
8.5 0.75 0
8.75 0.75 0
8.75 0.5 0
9 0.5 0
8.75 0.75 0
9 0.75 0
8.5 0.75 0
8.75 0.75 0
8.5 1 0
8.75 1 0
8.75 0.75 0
9 0.75 0
8.75 1 0
9 1 0
9 0 0
9.25 0 0
9 0.25 0
9.25 0.25 0
9.25 0 0
9.5 0 0
9.25 0.25 0
9.5 0.25 0
9 0.25 0
9.25 0.25 0
9 0.5 0
9.25 0.5 0
9.25 0.25 0
9.5 0.25 0
9.25 0.5 0
9.5 0.5 0
9.5 0 0
9.75 0 0
9.5 0.25 0
9.75 0.25 0
9.75 0 0
10 0 0
9.75 0.25 0
10 0.25 0
9.5 0.25 0
9.75 0.25 0
9.5 0.5 0
9.75 0.5 0
9.75 0.25 0
10 0.25 0
9.75 0.5 0
10 0.5 0
9 0.5 0
9.25 0.5 0
9 0.75 0
9.25 0.75 0
9.25 0.5 0
9.5 0.5 0
9.25 0.75 0
9.5 0.75 0
9 0.75 0
9.25 0.75 0
9 1 0
9.25 1 0
9.25 0.75 0
9.5 0.75 0
9.25 1 0
9.5 1 0
9.5 0.5 0
9.75 0.5 0
9.5 0.75 0
9.75 0.75 0
9.75 0.5 0
10 0.5 0
9.75 0.75 0
10 0.75 0
9.5 0.75 0
9.75 0.75 0
9.5 1 0
9.75 1 0
9.75 0.75 0
10 0.75 0
9.75 1 0
10 1 0
10 0 0
10.25 0 0
10 0.25 0
10.25 0.25 0
10.25 0 0
10.5 0 0
10.25 0.25 0
10.5 0.25 0
10 0.25 0
10.25 0.25 0
10 0.5 0
10.25 0.5 0
10.25 0.25 0
10.5 0.25 0
10.25 0.5 0
10.5 0.5 0
10.5 0 0
10.75 0 0
10.5 0.25 0
10.75 0.25 0
10.75 0 0
11 0 0
10.75 0.25 0
11 0.25 0
10.5 0.25 0
10.75 0.25 0
10.5 0.5 0
10.75 0.5 0
10.75 0.25 0
11 0.25 0
10.75 0.5 0
11 0.5 0
10 0.5 0
10.25 0.5 0
10 0.75 0
10.25 0.75 0
10.25 0.5 0
10.5 0.5 0
10.25 0.75 0
10.5 0.75 0
10 0.75 0
10.25 0.75 0
10 1 0
10.25 1 0
10.25 0.75 0
10.5 0.75 0
10.25 1 0
10.5 1 0
10.5 0.5 0
10.75 0.5 0
10.5 0.75 0
10.75 0.75 0
10.75 0.5 0
11 0.5 0
10.75 0.75 0
11 0.75 0
10.5 0.75 0
10.75 0.75 0
10.5 1 0
10.75 1 0
10.75 0.75 0
11 0.75 0
10.75 1 0
11 1 0
11 0 0
11.25 0 0
11 0.25 0
11.25 0.25 0
11.25 0 0
11.5 0 0
11.25 0.25 0
11.5 0.25 0
11 0.25 0
11.25 0.25 0
11 0.5 0
11.25 0.5 0
11.25 0.25 0
11.5 0.25 0
11.25 0.5 0
11.5 0.5 0
11.5 0 0
11.75 0 0
11.5 0.25 0
11.75 0.25 0
11.75 0 0
12 0 0
11.75 0.25 0
12 0.25 0
11.5 0.25 0
11.75 0.25 0
11.5 0.5 0
11.75 0.5 0
11.75 0.25 0
12 0.25 0
11.75 0.5 0
12 0.5 0
11 0.5 0
11.25 0.5 0
11 0.75 0
11.25 0.75 0
11.25 0.5 0
11.5 0.5 0
11.25 0.75 0
11.5 0.75 0
11 0.75 0
11.25 0.75 0
11 1 0
11.25 1 0
11.25 0.75 0
11.5 0.75 0
11.25 1 0
11.5 1 0
11.5 0.5 0
11.75 0.5 0
11.5 0.75 0
11.75 0.75 0
11.75 0.5 0
12 0.5 0
11.75 0.75 0
12 0.75 0
11.5 0.75 0
11.75 0.75 0
11.5 1 0
11.75 1 0
11.75 0.75 0
12 0.75 0
11.75 1 0
12 1 0
12 0 0
12.25 0 0
12 0.25 0
12.25 0.25 0
12.25 0 0
12.5 0 0
12.25 0.25 0
12.5 0.25 0
12 0.25 0
12.25 0.25 0
12 0.5 0
12.25 0.5 0
12.25 0.25 0
12.5 0.25 0
12.25 0.5 0
12.5 0.5 0
12.5 0 0
12.75 0 0
12.5 0.25 0
12.75 0.25 0
12.75 0 0
13 0 0
12.75 0.25 0
13 0.25 0
12.5 0.25 0
12.75 0.25 0
12.5 0.5 0
12.75 0.5 0
12.75 0.25 0
13 0.25 0
12.75 0.5 0
13 0.5 0
12 0.5 0
12.25 0.5 0
12 0.75 0
12.25 0.75 0
12.25 0.5 0
12.5 0.5 0
12.25 0.75 0
12.5 0.75 0
12 0.75 0
12.25 0.75 0
12 1 0
12.25 1 0
12.25 0.75 0
12.5 0.75 0
12.25 1 0
12.5 1 0
12.5 0.5 0
12.75 0.5 0
12.5 0.75 0
12.75 0.75 0
12.75 0.5 0
13 0.5 0
12.75 0.75 0
13 0.75 0
12.5 0.75 0
12.75 0.75 0
12.5 1 0
12.75 1 0
12.75 0.75 0
13 0.75 0
12.75 1 0
13 1 0
13 0 0
13.25 0 0
13 0.25 0
13.25 0.25 0
13.25 0 0
13.5 0 0
13.25 0.25 0
13.5 0.25 0
13 0.25 0
13.25 0.25 0
13 0.5 0
13.25 0.5 0
13.25 0.25 0
13.5 0.25 0
13.25 0.5 0
13.5 0.5 0
13.5 0 0
13.75 0 0
13.5 0.25 0
13.75 0.25 0
13.75 0 0
14 0 0
13.75 0.25 0
14 0.25 0
13.5 0.25 0
13.75 0.25 0
13.5 0.5 0
13.75 0.5 0
13.75 0.25 0
14 0.25 0
13.75 0.5 0
14 0.5 0
13 0.5 0
13.25 0.5 0
13 0.75 0
13.25 0.75 0
13.25 0.5 0
13.5 0.5 0
13.25 0.75 0
13.5 0.75 0
13 0.75 0
13.25 0.75 0
13 1 0
13.25 1 0
13.25 0.75 0
13.5 0.75 0
13.25 1 0
13.5 1 0
13.5 0.5 0
13.75 0.5 0
13.5 0.75 0
13.75 0.75 0
13.75 0.5 0
14 0.5 0
13.75 0.75 0
14 0.75 0
13.5 0.75 0
13.75 0.75 0
13.5 1 0
13.75 1 0
13.75 0.75 0
14 0.75 0
13.75 1 0
14 1 0
14 0 0
14.25 0 0
14 0.25 0
14.25 0.25 0
14.25 0 0
14.5 0 0
14.25 0.25 0
14.5 0.25 0
14 0.25 0
14.25 0.25 0
14 0.5 0
14.25 0.5 0
14.25 0.25 0
14.5 0.25 0
14.25 0.5 0
14.5 0.5 0
14.5 0 0
14.75 0 0
14.5 0.25 0
14.75 0.25 0
14.75 0 0
15 0 0
14.75 0.25 0
15 0.25 0
14.5 0.25 0
14.75 0.25 0
14.5 0.5 0
14.75 0.5 0
14.75 0.25 0
15 0.25 0
14.75 0.5 0
15 0.5 0
14 0.5 0
14.25 0.5 0
14 0.75 0
14.25 0.75 0
14.25 0.5 0
14.5 0.5 0
14.25 0.75 0
14.5 0.75 0
14 0.75 0
14.25 0.75 0
14 1 0
14.25 1 0
14.25 0.75 0
14.5 0.75 0
14.25 1 0
14.5 1 0
14.5 0.5 0
14.75 0.5 0
14.5 0.75 0
14.75 0.75 0
14.75 0.5 0
15 0.5 0
14.75 0.75 0
15 0.75 0
[...]
POINT_DATA 23040
SCALARS State_OptProblem double 1
LOOKUP_TABLE default
0 0 0 1.55988e-06 0 0 1.55988e-06 3.92735e-06 0 1.55988e-06 0 4.75744e-06 1.55988e-06 3.92735e-06 4.75744e-06 1.01338e-05 0 0 3.92735e-06 7.84093e-06 0 0 7.84093e-06 1.38801e-05 3.92735e-06 7.84093e-06 1.01338e-05 1.67779e-05 7.84093e-06 1.38801e-05 1.67779e-05 2.53093e-05 0 4.75744e-06 0 8.51869e-06 4.75744e-06 1.01338e-05 8.51869e-06 1.61311e-05 0 8.51869e-06 0 8.75906e-06 8.51869e-06 1.61311e-05 8.75906e-06 1.47362e-05 1.01338e-05 1.67779e-05 1.61311e-05 2.23097e-05 1.67779e-05 2.53093e-05 2.23097e-05 2.70447e-05 1.61311e-05 2.23097e-05 1.47362e-05 1.59965e-05 2.23097e-05 2.70447e-05 1.59965e-05 1.18456e-05 0 0 1.38801e-05 2.23556e-05 0 0 2.23556e-05 3.32106e-05 1.38801e-05 2.23556e-05 2.53093e-05 3.61464e-05 2.23556e-05 3.32106e-05 3.61464e-05 4.92912e-05 0 0 3.32106e-05 4.59784e-05 0 0 4.59784e-05 5.98335e-05 3.32106e-05 4.59784e-05 4.92912e-05 6.41936e-05 4.59784e-05 5.98335e-05 6.41936e-05 7.9801e-05 2.53093e-05 3.61464e-05 2.70447e-05 3.06583e-05 3.61464e-05 4.92912e-05 3.06583e-05 3.34207e-05 2.70447e-05 3.06583e-05 1.18456e-05 2.60112e-06 3.06583e-05 3.34207e-05 2.60112e-06 -1.10384e-05 4.92912e-05 6.41936e-05 3.34207e-05 3.52289e-05 6.41936e-05 7.9801e-05 3.52289e-05 3.55828e-05 3.34207e-05 3.52289e-05 -1.10384e-05 -2.85676e-05 3.52289e-05 3.55828e-05 -2.85676e-05 -4.97828e-05 0 0 5.98335e-05 7.37355e-05 0 0 7.37355e-05 8.66234e-05 5.98335e-05 7.37355e-05 7.9801e-05 9.48067e-05 7.37355e-05 8.66234e-05 9.48067e-05 0.000108004 0 0 8.66234e-05 9.75912e-05 0 0 9.75912e-05 0.000105983 8.66234e-05 9.75912e-05 0.000108004 0.000118579 9.75912e-05 0.000105983 0.000118579 0.000126207 7.9801e-05 9.48067e-05 3.55828e-05 3.39079e-05 9.48067e-05 0.000108004 3.39079e-05 3.00511e-05 3.55828e-05 3.39079e-05 -4.97828e-05 -7.43366e-05 3.39079e-05 3.00511e-05 -7.43366e-05 -0.000101041 0.000108004 0.000118579 3.00511e-05 2.46377e-05 0.000118579 0.000126207 2.46377e-05 1.90283e-05 3.00511e-05 2.46377e-05 -0.000101041 -0.000127433 2.46377e-05 1.90283e-05 -0.000127433 -0.000150013 0 0 0.000105983 0.000111382 0 0 0.000111382 0.00011352 0.000105983 0.000111382 0.000126207 0.000130897 0.000111382 0.00011352 0.000130897 0.000132684 0 0 0.00011352 0.000112178 0 0 0.000112178 0.000107144 0.00011352 0.000112178 0.000132684 0.000131349 0.000112178 0.000107144 0.000131349 0.000126334 0.000126207 0.000130897 1.90283e-05 1.48253e-05 0.000130897 0.000132684 1.48253e-05 1.31429e-05 1.90283e-05 1.48253e-05 -0.000150013 -0.000165202 1.48253e-05 1.31429e-05 -0.000165202 -0.000170621 0.000132684 0.000131349 1.31429e-05 1.40167e-05 0.000131349 0.000126334 1.40167e-05 1.62892e-05 1.31429e-05 1.40167e-05 -0.000170621 -0.000166035 1.40167e-05 1.62892e-05 -0.000166035 -0.000153439 0 0 0.000107144 9.82719e-05 0 0 9.82719e-05 8.56346e-05 0.000107144 9.82719e-05 0.000126334 0.000116937 9.82719e-05 8.56346e-05 0.000116937 0.000102729 0 0 8.56346e-05 6.97048e-05 0 0 6.97048e-05 5.14909e-05 8.56346e-05 6.97048e-05 0.000102729 8.40109e-05 6.97048e-05 5.14909e-05 8.40109e-05 6.2111e-05 0.000126334 0.000116937 1.62892e-05 1.80854e-05 0.000116937 0.000102729 1.80854e-05 1.76877e-05 1.62892e-05 1.80854e-05 -0.000153439 -0.000136158 1.80854e-05 1.76877e-05 -0.000136158 -0.000117359 0.000102729 8.40109e-05 1.76877e-05 1.44142e-05 8.40109e-05 6.2111e-05 1.44142e-05 9.08352e-06 1.76877e-05 1.44142e-05 -0.000117359 -9.86927e-05 1.44142e-05 9.08352e-06 -9.86927e-05 -7.97591e-05 0 0 5.14909e-05 3.25471e-05 0 0 3.25471e-05 1.48169e-05 5.14909e-05 3.25471e-05 6.2111e-05 3.93568e-05 3.25471e-05 1.48169e-05 3.93568e-05 1.86896e-05 0 0 1.48169e-05 3.16017e-07 0 0 3.16017e-07 -9.28963e-06 1.48169e-05 3.16017e-07 1.86896e-05 2.99587e-06 3.16017e-07 -9.28963e-06 2.99587e-06 -5.66937e-06 6.2111e-05 3.93568e-05 9.08352e-06 3.82979e-06 3.93568e-05 1.86896e-05 3.82979e-06 1.31152e-06 9.08352e-06 3.82979e-06 -7.97591e-05 -5.86705e-05 3.82979e-06 1.31152e-06 -5.86705e-05 -3.3503e-05 1.86896e-05 2.99587e-06 1.31152e-06 3.59948e-06 2.99587e-06 -5.66937e-06 3.59948e-06 1.11501e-05 1.31152e-06 3.59948e-06 -3.3503e-05 -3.98878e-06 3.59948e-06 1.11501e-05 -3.98878e-06 2.73012e-05 0 0 -9.28963e-06 -1.31047e-05 0 0 -1.31047e-05 -1.12795e-05 -9.28963e-06 -1.31047e-05 -5.66937e-06 -6.73755e-06 -1.31047e-05 -1.12795e-05 -6.73755e-06 -1.41024e-06 0 0 -1.12795e-05 -4.98745e-06 0 0 -4.98745e-06 3.98392e-06 -1.12795e-05 -4.98745e-06 -1.41024e-06 7.64223e-06 -4.98745e-06 3.98392e-06 7.64223e-06 1.72481e-05 -5.66937e-06 -6.73755e-06 1.11501e-05 2.22506e-05 -6.73755e-06 -1.41024e-06 2.22506e-05 3.32118e-05 1.11501e-05 2.22506e-05 2.73012e-05 5.48544e-05 2.22506e-05 3.32118e-05 5.48544e-05 7.14063e-05 -1.41024e-06 7.64223e-06 3.32118e-05 3.94161e-05 7.64223e-06 1.72481e-05 3.94161e-05 3.70985e-05 3.32118e-05 3.94161e-05 7.14063e-05 7.02355e-05 3.94161e-05 3.70985e-05 7.02355e-05 4.80085e-05 0 0 3.98392e-06 1.39728e-05 0 0 1.39728e-05 2.42345e-05 3.98392e-06 1.39728e-05 1.72481e-05 2.51757e-05 1.39728e-05 2.42345e-05 2.51757e-05 3.14809e-05 0 0 2.42345e-05 3.53175e-05 0 0 3.53175e-05 4.85615e-05 2.42345e-05 3.53175e-05 3.14809e-05 3.88861e-05 3.53175e-05 4.85615e-05 3.88861e-05 5.13961e-05 1.72481e-05 2.51757e-05 3.70985e-05 2.53923e-05 2.51757e-05 3.14809e-05 2.53923e-05 7.75717e-06 3.70985e-05 2.53923e-05 4.80085e-05 7.2562e-06 2.53923e-05 7.75717e-06 7.2562e-06 -4.27463e-05 3.14809e-05 3.88861e-05 7.75717e-06 -8.36299e-06 3.88861e-05 5.13961e-05 -8.36299e-06 -1.45114e-05 7.75717e-06 -8.36299e-06 -4.27463e-05 -8.79689e-05 -8.36299e-06 -1.45114e-05 -8.79689e-05 -0.000115043 0 0 4.85615e-05 6.46019e-05 0 0 6.46019e-05 8.14745e-05 4.85615e-05 6.46019e-05 5.13961e-05 7.1104e-05 6.46019e-05 8.14745e-05 7.1104e-05 9.45368e-05 0 0 8.14745e-05 9.36749e-05 0 0 9.36749e-05 9.37791e-05 8.14745e-05 9.36749e-05 9.45368e-05 0.000111326 9.36749e-05 9.37791e-05 0.000111326 0.000108239 5.13961e-05 7.1104e-05 -1.45114e-05 -6.44882e-06 7.1104e-05 9.45368e-05 -6.44882e-06 1.07941e-05 -1.45114e-05 -6.44882e-06 -0.000115043 -0.000118829 -6.44882e-06 1.07941e-05 -0.000118829 -0.000108171 9.45368e-05 0.000111326 1.07941e-05 2.23579e-05 0.000111326 0.000108239 2.23579e-05 1.15787e-05 1.07941e-05 2.23579e-05 -0.000108171 -0.000103865 2.23579e-05 1.15787e-05 -0.000103865 -0.000124306 0 0 9.37791e-05 7.73203e-05 0 0 7.73203e-05 4.93967e-05 9.37791e-05 7.73203e-05 0.000108239 7.94042e-05 7.73203e-05 4.93967e-05 7.94042e-05 3.87254e-05 0 0 4.93967e-05 2.88336e-05 0 0 2.88336e-05 4.46289e-05 4.93967e-05 2.88336e-05 3.87254e-05 2.51189e-05 2.88336e-05 4.46289e-05 2.51189e-05 8.98322e-05 0.000108239 7.94042e-05 1.15787e-05 -2.35569e-05 7.94042e-05 3.87254e-05 -2.35569e-05 -5.38866e-05 1.15787e-05 -2.35569e-05 -0.000124306 -0.000161615 -2.35569e-05 -5.38866e-05 -0.000161615 -0.00016364 3.87254e-05 2.51189e-05 -5.38866e-05 -1.89676e-05 2.51189e-05 8.98322e-05 -1.89676e-05 0.000140243 -5.38866e-05 -1.89676e-05 -0.00016364 -4.80847e-05 -1.89676e-05 0.000140243 -4.80847e-05 0.000229464 0 0 4.46289e-05 0.000121985 0 0 0.000121985 0.00026178 4.46289e-05 0.000121985 8.98322e-05 0.00026232 0.000121985 0.00026178 0.00026232 0.000506891 0 0 0.00026178 0.000424754 0 0 0.000424754 0.000534191 0.00026178 0.000424754 0.000506891 0.000698013 0.000424754 0.000534191 0.000698013 0.000643431 8.98322e-05 0.00026232 0.000140243 0.000415876 0.00026232 0.000506891 0.000415876 0.00066569 0.000140243 0.000415876 0.000229464 0.000564582 0.000415876 0.00066569 0.000564582 0.000617988 0.000506891 0.000698013 0.00066569 0.000600403 0.000698013 0.000643431 0.000600403 -0.000128722 0.00066569 0.000600403 0.000617988 -0.000136059 0.000600403 -0.000128722 -0.000136059 -0.00216183 0 0 0.000534191 0.000503918 0 0 0.000503918 0.000283309 0.000534191 0.000503918 0.000643431 0.000162492 0.000503918 0.000283309 0.000162492 -0.000809503 0 0 0.000283309 -0.000103571 0 0 -0.000103571 -0.000550421 0.000283309 -0.000103571 -0.000809503 -0.00214691 -0.000103571 -0.000550421 -0.00214691 -0.0035401 0.000643431 0.000162492 -0.000128722 -0.00175762 0.000162492 -0.000809503 -0.00175762 -0.00424127 -0.000128722 -0.00175762 -0.00216183 -0.00551601 -0.00175762 -0.00424127 -0.00551601 -0.00967342 -0.000809503 -0.00214691 -0.00424127 -0.00719798 -0.00214691 -0.0035401 -0.00719798 -0.0100097 -0.00424127 -0.00719798 -0.00967342 -0.0137311 -0.00719798 -0.0100097 -0.0137311 -0.0168825 0 0 -0.000550421 -0.000904342 0 0 -0.000904342 -0.00103155 -0.000550421 -0.000904342 -0.0035401 -0.00459413 -0.000904342 -0.00103155 -0.00459413 -0.00498088 0 0 -0.00103155 -0.000880077 0 0 -0.000880077 -0.000505191 -0.00103155 -0.000880077 -0.00498088 -0.0045742 -0.000880077 -0.000505191 -0.0045742 -0.00350327 -0.0035401 -0.00459413 -0.0100097 -0.0120249 -0.00459413 -0.00498088 -0.0120249 -0.0127631 -0.0100097 -0.0120249 -0.0168825 -0.0187654 -0.0120249 -0.0127631 -0.0187654 -0.0193982 -0.00498088 -0.0045742 -0.0127631 -0.0120484 -0.0045742 -0.00350327 -0.0120484 -0.0100542 -0.0127631 -0.0120484 -0.0193982 -0.0188458 -0.0120484 -0.0100542 -0.0188458 -0.0170317 0 0 -0.000505191 -4.32387e-05 0 0 -4.32387e-05 0.000351569 -0.000505191 -4.32387e-05 -0.00350327 -0.00209841 -4.32387e-05 0.000351569 -0.00209841 -0.000755286 0 0 0.000351569 0.000573014 0 0 0.000573014 0.000598275 0.000351569 0.000573014 -0.000755286 0.000217191 0.000573014 0.000598275 0.000217191 0.000695184 -0.00350327 -0.00209841 -0.0100542 -0.00725841 -0.00209841 -0.000755286 -0.00725841 -0.00431051 -0.0100542 -0.00725841 -0.0170317 -0.0139284 -0.00725841 -0.00431051 -0.0139284 -0.00989283 -0.000755286 0.000217191 -0.00431051 -0.00182695 0.000217191 0.000695184 -0.00182695 -0.000188767 -0.00431051 -0.00182695 -0.00989283 -0.00573098 -0.00182695 -0.000188767 -0.00573098 -0.00234943 0 0 0.000598275 0.000479907 0 0 0.000479907 0.000306147 0.000598275 0.000479907 0.000695184 0.000745564 0.000479907 0.000306147 0.000745564 0.000550832 0 0 0.000306147 0.000155472 0 0 0.000155472 6.83954e-05 0.000306147 0.000155472 0.000550832 0.000304284 0.000155472 6.83954e-05 0.000304284 0.000131583 0.000695184 0.000745564 -0.000188767 0.000558484 0.000745564 0.000550832 0.000558484 0.000649007 -0.000188767 0.000558484 -0.00234943 -0.000279668 0.000558484 0.000649007 -0.000279668 0.000527742 0.000550832 0.000304284 0.000649007 0.000428776 0.000304284 0.000131583 0.000428776 0.000183634 0.000649007 0.000428776 0.000527742 0.000530372 0.000428776 0.000183634 0.000530372 0.000248591 0 0 6.83954e-05 4.47934e-05 0 0 4.47934e-05 5.99017e-05 6.83954e-05 4.47934e-05 0.000131583 6.78517e-05 4.47934e-05 5.99017e-05 6.78517e-05 8.27903e-05 0 0 5.99017e-05 8.50531e-05 0 0 8.50531e-05 0.000101783 5.99017e-05 8.50531e-05 8.27903e-05 0.000124486 8.50531e-05 0.000101783 0.000124486 0.000153865 0.000131583 6.78517e-05 0.000183634 5.2149e-05 6.78517e-05 8.27903e-05 5.2149e-05 3.87366e-05 0.000183634 5.2149e-05 0.000248591 1.7603e-05 5.2149e-05 3.87366e-05 1.7603e-05 -6.15276e-05 8.27903e-05 0.000124486 3.87366e-05 8.15497e-05 0.000124486 0.000153865 8.15497e-05 0.000118396 3.87366e-05 8.15497e-05 -6.15276e-05 -3.64726e-05 8.15497e-05 0.000118396 -3.64726e-05 7.1586e-06 0 0 0.000101783 0.000105375 0 0 0.000105375 0.000100556 0.000101783 0.000105375 0.000153865 0.000157472 0.000105375 0.000100556 0.000157472 0.000142087 0 0 0.000100556 9.46657e-05 0 0 9.46657e-05 9.2592e-05 0.000100556 9.46657e-05 0.000142087 0.000121987 9.46657e-05 9.2592e-05 0.000121987 0.000108333 0.000153865 0.000157472 0.000118396 0.000119761 0.000157472 0.000142087 0.000119761 8.89256e-05 0.000118396 0.000119761 7.1586e-06 1.44224e-05 0.000119761 8.89256e-05 1.44224e-05 -2.36271e-05 0.000142087 0.000121987 8.89256e-05 4.54394e-05 0.000121987 0.000108333 4.54394e-05 8.36796e-06 8.89256e-05 4.54394e-05 -2.36271e-05 -8.65891e-05 4.54394e-05 8.36796e-06 -8.65891e-05 -0.000147786 0 0 9.2592e-05 9.50929e-05 0 0 9.50929e-05 9.98475e-05 9.2592e-05 9.50929e-05 0.000108333 0.000104836 9.50929e-05 9.98475e-05 0.000104836 0.00010894 0 0 9.98475e-05 0.000103612 0 0 0.000103612 0.000104029 9.98475e-05 0.000103612 0.00010894 0.00011551 0.000103612 0.000104029 0.00011551 0.000120184 0.000108333 0.000104836 8.36796e-06 -1.23513e-05 0.000104836 0.00010894 -1.23513e-05 -1.62184e-05 8.36796e-06 -1.23513e-05 -0.000147786 -0.000188931 -1.23513e-05 -1.62184e-05 -0.000188931 -0.000203782 0.00010894 0.00011551 -1.62184e-05 -8.07841e-06 0.00011551 0.000120184 -8.07841e-06 6.26121e-06 -1.62184e-05 -8.07841e-06 -0.000203782 -0.000194977 -8.07841e-06 6.26121e-06 -0.000194977 -0.000169254 0 0 0.000104029 0.0001004 0 0 0.0001004 9.3457e-05 0.000104029 0.0001004 0.000120184 0.000120955 0.0001004 9.3457e-05 0.000120955 0.000117978 0 0 9.3457e-05 8.45939e-05 0 0 8.45939e-05 7.50917e-05 9.3457e-05 8.45939e-05 0.000117978 0.000112428 8.45939e-05 7.50917e-05 0.000112428 0.000105331 0.000120184 0.000120955 6.26121e-06 2.24838e-05 0.000120955 0.000117978 2.24838e-05 3.81036e-05 6.26121e-06 2.24838e-05 -0.000169254 -0.000134083 2.24838e-05 3.81036e-05 -0.000134083 -9.62137e-05 0.000117978 0.000112428 3.81036e-05 5.1658e-05 0.000112428 0.000105331 5.1658e-05 6.18623e-05 3.81036e-05 5.1658e-05 -9.62137e-05 -6.12772e-05 5.1658e-05 6.18623e-05 -6.12772e-05 -3.35067e-05 0 0 7.50917e-05 6.56816e-05 0 0 6.56816e-05 5.65482e-05 7.50917e-05 6.56816e-05 0.000105331 9.69916e-05 6.56816e-05 5.65482e-05 9.69916e-05 8.71224e-05 0 0 5.65482e-05 4.76465e-05 0 0 4.76465e-05 3.90963e-05 5.65482e-05 4.76465e-05 8.71224e-05 7.54367e-05 4.76465e-05 3.90963e-05 7.54367e-05 6.22646e-05 0.000105331 9.69916e-05 6.18623e-05 6.73602e-05 9.69916e-05 8.71224e-05 6.73602e-05 6.70913e-05 6.18623e-05 6.73602e-05 -3.35067e-05 -1.52419e-05 6.73602e-05 6.70913e-05 -1.52419e-05 -6.51635e-06 8.71224e-05 7.54367e-05 6.70913e-05 6.08838e-05 7.54367e-05 6.22646e-05 6.08838e-05 4.97983e-05 6.70913e-05 6.08838e-05 -6.51635e-06 -5.22603e-06 6.08838e-05 4.97983e-05 -5.22603e-06 -8.10651e-06 0 0 3.90963e-05 3.1423e-05 0 0 3.1423e-05 2.55198e-05 3.90963e-05 3.1423e-05 6.22646e-05 4.8829e-05 3.1423e-05 2.55198e-05 4.8829e-05 3.70254e-05 0 0 2.55198e-05 2.23504e-05 0 0 2.23504e-05 2.25383e-05 2.55198e-05 2.23504e-05 3.70254e-05 2.88127e-05 2.23504e-05 2.25383e-05 2.88127e-05 2.55059e-05 6.22646e-05 4.8829e-05 4.97983e-05 3.59459e-05 4.8829e-05 3.70254e-05 3.59459e-05 2.18375e-05 4.97983e-05 3.59459e-05 -8.10651e-06 -1.2235e-05 3.59459e-05 2.18375e-05 -1.2235e-05 -1.63653e-05 3.70254e-05 2.88127e-05 2.18375e-05 9.58612e-06 2.88127e-05 2.55059e-05 9.58612e-06 3.59841e-07 2.18375e-05 9.58612e-06 -1.63653e-05 -2.13715e-05 9.58612e-06 3.59841e-07 -2.13715e-05 -2.94757e-05 0 0 2.25383e-05 2.60339e-05 0 0 2.60339e-05 3.20123e-05 2.25383e-05 2.60339e-05 2.55059e-05 2.72903e-05 2.60339e-05 3.20123e-05 2.72903e-05 3.31543e-05 0 0 3.20123e-05 3.90505e-05 0 0 3.90505e-05 4.55145e-05 3.20123e-05 3.90505e-05 3.31543e-05 4.12366e-05 3.90505e-05 4.55145e-05 4.12366e-05 4.94106e-05 2.55059e-05 2.72903e-05 3.59841e-07 -5.67172e-06 2.72903e-05 3.31543e-05 -5.67172e-06 -8.94472e-06 3.59841e-07 -5.67172e-06 -2.94757e-05 -4.25735e-05 -5.67172e-06 -8.94472e-06 -4.25735e-05 -6.05067e-05 3.31543e-05 4.12366e-05 -8.94472e-06 -9.95669e-06 4.12366e-05 4.94106e-05 -9.95669e-06 -8.92894e-06 -8.94472e-06 -9.95669e-06 -6.05067e-05 -8.02616e-05 -9.95669e-06 -8.92894e-06 -8.02616e-05 -9.66675e-05 0 0 4.55145e-05 5.00154e-05 0 0 5.00154e-05 5.17836e-05 4.55145e-05 5.00154e-05 4.94106e-05 5.58699e-05 5.00154e-05 5.17836e-05 5.58699e-05 5.95355e-05 0 0 5.17836e-05 5.08556e-05 0 0 5.08556e-05 4.80421e-05 5.17836e-05 5.08556e-05 5.95355e-05 6.02254e-05 5.08556e-05 4.80421e-05 6.02254e-05 5.86231e-05 4.94106e-05 5.58699e-05 -8.92894e-06 -5.86861e-06 5.58699e-05 5.95355e-05 -5.86861e-06 -9.34105e-07 -8.92894e-06 -5.86861e-06 -9.66675e-05 -0.000104424 -5.86861e-06 -9.34105e-07 -0.000104424 -0.000100553 5.95355e-05 6.02254e-05 -9.34105e-07 5.21899e-06 6.02254e-05 5.86231e-05 5.21899e-06 1.14416e-05 -9.34105e-07 5.21899e-06 -0.000100553 -8.60463e-05 5.21899e-06 1.14416e-05 -8.60463e-05 -6.58051e-05 0 0 4.80421e-05 4.47056e-05 0 0 4.47056e-05 4.24126e-05 4.80421e-05 4.47056e-05 5.86231e-05 5.61074e-05 4.47056e-05 4.24126e-05 5.61074e-05 5.44713e-05 0 0 4.24126e-05 4.25422e-05 0 0 4.25422e-05 4.5937e-05 4.24126e-05 4.25422e-05 5.44713e-05 5.55295e-05 4.25422e-05 4.5937e-05 5.55295e-05 6.06342e-05 5.86231e-05 5.61074e-05 1.14416e-05 1.65433e-05 5.61074e-05 5.44713e-05 1.65433e-05 1.99606e-05 1.14416e-05 1.65433e-05 -6.58051e-05 -4.67666e-05 1.65433e-05 1.99606e-05 -4.67666e-05 -3.50456e-05 5.44713e-05 5.55295e-05 1.99606e-05 2.22022e-05 5.55295e-05 6.06342e-05 2.22022e-05 2.4698e-05 1.99606e-05 2.22022e-05 -3.50456e-05 -3.34626e-05 2.22022e-05 2.4698e-05 -3.34626e-05 -4.06699e-05 0 0 4.5937e-05 5.26808e-05 0 0 5.26808e-05 6.20693e-05 4.5937e-05 5.26808e-05 6.06342e-05 7.02013e-05 5.26808e-05 6.20693e-05 7.02013e-05 8.34231e-05 0 0 6.20693e-05 7.27974e-05 0 0 7.27974e-05 8.33199e-05 6.20693e-05 7.27974e-05 8.34231e-05 9.83465e-05 7.27974e-05 8.33199e-05 9.83465e-05 0.000112376 6.06342e-05 7.02013e-05 2.4698e-05 2.9013e-05 7.02013e-05 8.34231e-05 2.9013e-05 3.57952e-05 2.4698e-05 2.9013e-05 -4.06699e-05 -5.22944e-05 2.9013e-05 3.57952e-05 -5.22944e-05 -6.3474e-05 8.34231e-05 9.83465e-05 3.57952e-05 4.40552e-05 9.83465e-05 0.000112376 4.40552e-05 5.12621e-05 3.57952e-05 4.40552e-05 -6.3474e-05 -7.1448e-05 4.40552e-05 5.12621e-05 -7.1448e-05 -7.68428e-05 0 0 8.33199e-05 9.22748e-05 0 0 9.22748e-05 9.88236e-05 8.33199e-05 9.22748e-05 0.000112376 0.000123072 9.22748e-05 9.88236e-05 0.000123072 0.000128944 0 0 9.88236e-05 0.000102784 0 0 0.000102784 0.000104513 9.88236e-05 0.000102784 0.000128944 0.000129905 0.000102784 0.000104513 0.000129905 0.000127171 0.000112376 0.000123072 5.12621e-05 5.43256e-05 0.000123072 0.000128944 5.43256e-05 5.10399e-05 5.12621e-05 5.43256e-05 -7.68428e-05 -8.30098e-05 5.43256e-05 5.10399e-05 -8.30098e-05 -9.38138e-05 0.000128944 0.000129905 5.10399e-05 4.12761e-05 0.000129905 0.000127171 4.12761e-05 2.72956e-05 5.10399e-05 4.12761e-05 -9.38138e-05 -0.000111093 4.12761e-05 2.72956e-05 -0.000111093 -0.000133159 0 0 0.000104513 0.000104604 0 0 0.000104604 0.00010353 0.000104513 0.000104604 0.000127171 0.000122658 0.000104604 0.00010353 0.000122658 0.000118129 0 0 0.00010353 0.000101412 0 0 0.000101412 9.79857e-05 0.00010353 0.000101412 0.000118129 0.000114491 0.000101412 9.79857e-05 0.000114491 0.00011154 0.000127171 0.000122658 2.72956e-05 1.29933e-05 0.000122658 0.000118129 1.29933e-05 2.41064e-06 2.72956e-05 1.29933e-05 -0.000133159 -0.000155107 1.29933e-05 2.41064e-06 -0.000155107 -0.000170753 0.000118129 0.000114491 2.41064e-06 -1.77816e-06 0.000114491 0.00011154 -1.77816e-06 8.76708e-07 2.41064e-06 -1.77816e-06 -0.000170753 -0.000175147 -1.77816e-06 8.76708e-07 -0.000175147 -0.000166432 0 0 9.79857e-05 9.27912e-05 0 0 9.27912e-05 8.54657e-05 9.79857e-05 9.27912e-05 0.00011154 0.000108227 9.27912e-05 8.54657e-05 0.000108227 0.000103275 0 0 8.54657e-05 7.6008e-05 0 0 7.6008e-05 6.48872e-05 8.54657e-05 7.6008e-05 0.000103275 9.58292e-05 7.6008e-05 6.48872e-05 9.58292e-05 8.58384e-05 0.00011154 0.000108227 8.76708e-07 8.72781e-06 0.000108227 0.000103275 8.72781e-06 1.89678e-05 8.76708e-07 8.72781e-06 -0.000166432 -0.000146226 8.72781e-06 1.89678e-05 -0.000146226 -0.000118555 0.000103275 9.58292e-05 1.89678e-05 2.88376e-05 9.58292e-05 8.58384e-05 2.88376e-05 3.65116e-05 1.89678e-05 2.88376e-05 -0.000118555 -8.80663e-05 2.88376e-05 3.65116e-05 -8.80663e-05 -5.85062e-05 0 0 6.48872e-05 5.29561e-05 0 0 5.29561e-05 4.12178e-05 6.48872e-05 5.29561e-05 8.58384e-05 7.40185e-05 5.29561e-05 4.12178e-05 7.40185e-05 6.14843e-05 0 0 4.12178e-05 3.05518e-05 0 0 3.05518e-05 2.15094e-05 4.12178e-05 3.05518e-05 6.14843e-05 4.9268e-05 3.05518e-05 2.15094e-05 4.9268e-05 3.79701e-05 8.58384e-05 7.40185e-05 3.65116e-05 4.13198e-05 7.40185e-05 6.14843e-05 4.13198e-05 4.33642e-05 3.65116e-05 4.13198e-05 -5.85062e-05 -3.21106e-05 4.13198e-05 4.33642e-05 -3.21106e-05 -9.95139e-06 6.14843e-05 4.9268e-05 4.33642e-05 4.28943e-05 4.9268e-05 3.79701e-05 4.28943e-05 3.98747e-05 4.3