# vtk DataFile Version 3.0
#This file was generated by the deal.II library on 2012/5/30 at 14:20:29
ASCII
DATASET UNSTRUCTURED_GRID

POINTS 23040 double
0 0 0
0.25 0 0
0 0.25 0
0.25 0.25 0
0.25 0 0
0.5 0 0
0.25 0.25 0
0.5 0.25 0
0 0.25 0
0.25 0.25 0
0 0.5 0
0.25 0.5 0
0.25 0.25 0
0.5 0.25 0
0.25 0.5 0
0.5 0.5 0
0.5 0 0
0.75 0 0
0.5 0.25 0
0.75 0.25 0
0.75 0 0
1 0 0
0.75 0.25 0
1 0.25 0
0.5 0.25 0
0.75 0.25 0
0.5 0.5 0
0.75 0.5 0
0.75 0.25 0
1 0.25 0
0.75 0.5 0
1 0.5 0
0 0.5 0
0.25 0.5 0
0 0.75 0
0.25 0.75 0
0.25 0.5 0
0.5 0.5 0
0.25 0.75 0
0.5 0.75 0
0 0.75 0
0.25 0.75 0
0 1 0
0.25 1 0
0.25 0.75 0
0.5 0.75 0
0.25 1 0
0.5 1 0
0.5 0.5 0
0.75 0.5 0
0.5 0.75 0
0.75 0.75 0
0.75 0.5 0
1 0.5 0
0.75 0.75 0
1 0.75 0
0.5 0.75 0
0.75 0.75 0
0.5 1 0
0.75 1 0
0.75 0.75 0
1 0.75 0
0.75 1 0
1 1 0
1 0 0
1.25 0 0
1 0.25 0
1.25 0.25 0
1.25 0 0
1.5 0 0
1.25 0.25 0
1.5 0.25 0
1 0.25 0
1.25 0.25 0
1 0.5 0
1.25 0.5 0
1.25 0.25 0
1.5 0.25 0
1.25 0.5 0
1.5 0.5 0
1.5 0 0
1.75 0 0
1.5 0.25 0
1.75 0.25 0
1.75 0 0
2 0 0
1.75 0.25 0
2 0.25 0
1.5 0.25 0
1.75 0.25 0
1.5 0.5 0
1.75 0.5 0
1.75 0.25 0
2 0.25 0
1.75 0.5 0
2 0.5 0
1 0.5 0
1.25 0.5 0
1 0.75 0
1.25 0.75 0
1.25 0.5 0
1.5 0.5 0
1.25 0.75 0
1.5 0.75 0
1 0.75 0
1.25 0.75 0
1 1 0
1.25 1 0
1.25 0.75 0
1.5 0.75 0
1.25 1 0
1.5 1 0
1.5 0.5 0
1.75 0.5 0
1.5 0.75 0
1.75 0.75 0
1.75 0.5 0
2 0.5 0
1.75 0.75 0
2 0.75 0
1.5 0.75 0
1.75 0.75 0
1.5 1 0
1.75 1 0
1.75 0.75 0
2 0.75 0
1.75 1 0
2 1 0
2 0 0
2.25 0 0
2 0.25 0
2.25 0.25 0
2.25 0 0
2.5 0 0
2.25 0.25 0
2.5 0.25 0
2 0.25 0
2.25 0.25 0
2 0.5 0
2.25 0.5 0
2.25 0.25 0
2.5 0.25 0
2.25 0.5 0
2.5 0.5 0
2.5 0 0
2.75 0 0
2.5 0.25 0
2.75 0.25 0
2.75 0 0
3 0 0
2.75 0.25 0
3 0.25 0
2.5 0.25 0
2.75 0.25 0
2.5 0.5 0
2.75 0.5 0
2.75 0.25 0
3 0.25 0
2.75 0.5 0
3 0.5 0
2 0.5 0
2.25 0.5 0
2 0.75 0
2.25 0.75 0
2.25 0.5 0
2.5 0.5 0
2.25 0.75 0
2.5 0.75 0
2 0.75 0
2.25 0.75 0
2 1 0
2.25 1 0
2.25 0.75 0
2.5 0.75 0
2.25 1 0
2.5 1 0
2.5 0.5 0
2.75 0.5 0
2.5 0.75 0
2.75 0.75 0
2.75 0.5 0
3 0.5 0
2.75 0.75 0
3 0.75 0
2.5 0.75 0
2.75 0.75 0
2.5 1 0
2.75 1 0
2.75 0.75 0
3 0.75 0
2.75 1 0
3 1 0
3 0 0
3.25 0 0
3 0.25 0
3.25 0.25 0
3.25 0 0
3.5 0 0
3.25 0.25 0
3.5 0.25 0
3 0.25 0
3.25 0.25 0
3 0.5 0
3.25 0.5 0
3.25 0.25 0
3.5 0.25 0
3.25 0.5 0
3.5 0.5 0
3.5 0 0
3.75 0 0
3.5 0.25 0
3.75 0.25 0
3.75 0 0
4 0 0
3.75 0.25 0
4 0.25 0
3.5 0.25 0
3.75 0.25 0
3.5 0.5 0
3.75 0.5 0
3.75 0.25 0
4 0.25 0
3.75 0.5 0
4 0.5 0
3 0.5 0
3.25 0.5 0
3 0.75 0
3.25 0.75 0
3.25 0.5 0
3.5 0.5 0
3.25 0.75 0
3.5 0.75 0
3 0.75 0
3.25 0.75 0
3 1 0
3.25 1 0
3.25 0.75 0
3.5 0.75 0
3.25 1 0
3.5 1 0
3.5 0.5 0
3.75 0.5 0
3.5 0.75 0
3.75 0.75 0
3.75 0.5 0
4 0.5 0
3.75 0.75 0
4 0.75 0
3.5 0.75 0
3.75 0.75 0
3.5 1 0
3.75 1 0
3.75 0.75 0
4 0.75 0
3.75 1 0
4 1 0
4 0 0
4.25 0 0
4 0.25 0
4.25 0.25 0
4.25 0 0
4.5 0 0
4.25 0.25 0
4.5 0.25 0
4 0.25 0
4.25 0.25 0
4 0.5 0
4.25 0.5 0
4.25 0.25 0
4.5 0.25 0
4.25 0.5 0
4.5 0.5 0
4.5 0 0
4.75 0 0
4.5 0.25 0
4.75 0.25 0
4.75 0 0
5 0 0
4.75 0.25 0
5 0.25 0
4.5 0.25 0
4.75 0.25 0
4.5 0.5 0
4.75 0.5 0
4.75 0.25 0
5 0.25 0
4.75 0.5 0
5 0.5 0
4 0.5 0
4.25 0.5 0
4 0.75 0
4.25 0.75 0
4.25 0.5 0
4.5 0.5 0
4.25 0.75 0
4.5 0.75 0
4 0.75 0
4.25 0.75 0
4 1 0
4.25 1 0
4.25 0.75 0
4.5 0.75 0
4.25 1 0
4.5 1 0
4.5 0.5 0
4.75 0.5 0
4.5 0.75 0
4.75 0.75 0
4.75 0.5 0
5 0.5 0
4.75 0.75 0
5 0.75 0
4.5 0.75 0
4.75 0.75 0
4.5 1 0
4.75 1 0
4.75 0.75 0
5 0.75 0
4.75 1 0
5 1 0
5 0 0
5.25 0 0
5 0.25 0
5.25 0.25 0
5.25 0 0
5.5 0 0
5.25 0.25 0
5.5 0.25 0
5 0.25 0
5.25 0.25 0
5 0.5 0
5.25 0.5 0
5.25 0.25 0
5.5 0.25 0
5.25 0.5 0
5.5 0.5 0
5.5 0 0
5.75 0 0
5.5 0.25 0
5.75 0.25 0
5.75 0 0
6 0 0
5.75 0.25 0
6 0.25 0
5.5 0.25 0
5.75 0.25 0
5.5 0.5 0
5.75 0.5 0
5.75 0.25 0
6 0.25 0
5.75 0.5 0
6 0.5 0
5 0.5 0
5.25 0.5 0
5 0.75 0
5.25 0.75 0
5.25 0.5 0
5.5 0.5 0
5.25 0.75 0
5.5 0.75 0
5 0.75 0
5.25 0.75 0
5 1 0
5.25 1 0
5.25 0.75 0
5.5 0.75 0
5.25 1 0
5.5 1 0
5.5 0.5 0
5.75 0.5 0
5.5 0.75 0
5.75 0.75 0
5.75 0.5 0
6 0.5 0
5.75 0.75 0
6 0.75 0
5.5 0.75 0
5.75 0.75 0
5.5 1 0
5.75 1 0
5.75 0.75 0
6 0.75 0
5.75 1 0
6 1 0
6 0 0
6.25 0 0
6 0.25 0
6.25 0.25 0
6.25 0 0
6.5 0 0
6.25 0.25 0
6.5 0.25 0
6 0.25 0
6.25 0.25 0
6 0.5 0
6.25 0.5 0
6.25 0.25 0
6.5 0.25 0
6.25 0.5 0
6.5 0.5 0
6.5 0 0
6.75 0 0
6.5 0.25 0
6.75 0.25 0
6.75 0 0
7 0 0
6.75 0.25 0
7 0.25 0
6.5 0.25 0
6.75 0.25 0
6.5 0.5 0
6.75 0.5 0
6.75 0.25 0
7 0.25 0
6.75 0.5 0
7 0.5 0
6 0.5 0
6.25 0.5 0
6 0.75 0
6.25 0.75 0
6.25 0.5 0
6.5 0.5 0
6.25 0.75 0
6.5 0.75 0
6 0.75 0
6.25 0.75 0
6 1 0
6.25 1 0
6.25 0.75 0
6.5 0.75 0
6.25 1 0
6.5 1 0
6.5 0.5 0
6.75 0.5 0
6.5 0.75 0
6.75 0.75 0
6.75 0.5 0
7 0.5 0
6.75 0.75 0
7 0.75 0
6.5 0.75 0
6.75 0.75 0
6.5 1 0
6.75 1 0
6.75 0.75 0
7 0.75 0
6.75 1 0
7 1 0
7 0 0
7.25 0 0
7 0.25 0
7.25 0.25 0
7.25 0 0
7.5 0 0
7.25 0.25 0
7.5 0.25 0
7 0.25 0
7.25 0.25 0
7 0.5 0
7.25 0.5 0
7.25 0.25 0
7.5 0.25 0
7.25 0.5 0
7.5 0.5 0
7.5 0 0
7.75 0 0
7.5 0.25 0
7.75 0.25 0
7.75 0 0
8 0 0
7.75 0.25 0
8 0.25 0
7.5 0.25 0
7.75 0.25 0
7.5 0.5 0
7.75 0.5 0
7.75 0.25 0
8 0.25 0
7.75 0.5 0
8 0.5 0
7 0.5 0
7.25 0.5 0
7 0.75 0
7.25 0.75 0
7.25 0.5 0
7.5 0.5 0
7.25 0.75 0
7.5 0.75 0
7 0.75 0
7.25 0.75 0
7 1 0
7.25 1 0
7.25 0.75 0
7.5 0.75 0
7.25 1 0
7.5 1 0
7.5 0.5 0
7.75 0.5 0
7.5 0.75 0
7.75 0.75 0
7.75 0.5 0
8 0.5 0
7.75 0.75 0
8 0.75 0
7.5 0.75 0
7.75 0.75 0
7.5 1 0
7.75 1 0
7.75 0.75 0
8 0.75 0
7.75 1 0
8 1 0
8 0 0
8.25 0 0
8 0.25 0
8.25 0.25 0
8.25 0 0
8.5 0 0
8.25 0.25 0
8.5 0.25 0
8 0.25 0
8.25 0.25 0
8 0.5 0
8.25 0.5 0
8.25 0.25 0
8.5 0.25 0
8.25 0.5 0
8.5 0.5 0
8.5 0 0
8.75 0 0
8.5 0.25 0
8.75 0.25 0
8.75 0 0
9 0 0
8.75 0.25 0
9 0.25 0
8.5 0.25 0
8.75 0.25 0
8.5 0.5 0
8.75 0.5 0
8.75 0.25 0
9 0.25 0
8.75 0.5 0
9 0.5 0
8 0.5 0
8.25 0.5 0
8 0.75 0
8.25 0.75 0
8.25 0.5 0
8.5 0.5 0
8.25 0.75 0
8.5 0.75 0
8 0.75 0
8.25 0.75 0
8 1 0
8.25 1 0
8.25 0.75 0
8.5 0.75 0
8.25 1 0
8.5 1 0
8.5 0.5 0
8.75 0.5 0
8.5 0.75 0
8.75 0.75 0
8.75 0.5 0
9 0.5 0
8.75 0.75 0
9 0.75 0
8.5 0.75 0
8.75 0.75 0
8.5 1 0
8.75 1 0
8.75 0.75 0
9 0.75 0
8.75 1 0
9 1 0
9 0 0
9.25 0 0
9 0.25 0
9.25 0.25 0
9.25 0 0
9.5 0 0
9.25 0.25 0
9.5 0.25 0
9 0.25 0
9.25 0.25 0
9 0.5 0
9.25 0.5 0
9.25 0.25 0
9.5 0.25 0
9.25 0.5 0
9.5 0.5 0
9.5 0 0
9.75 0 0
9.5 0.25 0
9.75 0.25 0
9.75 0 0
10 0 0
9.75 0.25 0
10 0.25 0
9.5 0.25 0
9.75 0.25 0
9.5 0.5 0
9.75 0.5 0
9.75 0.25 0
10 0.25 0
9.75 0.5 0
10 0.5 0
9 0.5 0
9.25 0.5 0
9 0.75 0
9.25 0.75 0
9.25 0.5 0
9.5 0.5 0
9.25 0.75 0
9.5 0.75 0
9 0.75 0
9.25 0.75 0
9 1 0
9.25 1 0
9.25 0.75 0
9.5 0.75 0
9.25 1 0
9.5 1 0
9.5 0.5 0
9.75 0.5 0
9.5 0.75 0
9.75 0.75 0
9.75 0.5 0
10 0.5 0
9.75 0.75 0
10 0.75 0
9.5 0.75 0
9.75 0.75 0
9.5 1 0
9.75 1 0
9.75 0.75 0
10 0.75 0
9.75 1 0
10 1 0
10 0 0
10.25 0 0
10 0.25 0
10.25 0.25 0
10.25 0 0
10.5 0 0
10.25 0.25 0
10.5 0.25 0
10 0.25 0
10.25 0.25 0
10 0.5 0
10.25 0.5 0
10.25 0.25 0
10.5 0.25 0
10.25 0.5 0
10.5 0.5 0
10.5 0 0
10.75 0 0
10.5 0.25 0
10.75 0.25 0
10.75 0 0
11 0 0
10.75 0.25 0
11 0.25 0
10.5 0.25 0
10.75 0.25 0
10.5 0.5 0
10.75 0.5 0
10.75 0.25 0
11 0.25 0
10.75 0.5 0
11 0.5 0
10 0.5 0
10.25 0.5 0
10 0.75 0
10.25 0.75 0
10.25 0.5 0
10.5 0.5 0
10.25 0.75 0
10.5 0.75 0
10 0.75 0
10.25 0.75 0
10 1 0
10.25 1 0
10.25 0.75 0
10.5 0.75 0
10.25 1 0
10.5 1 0
10.5 0.5 0
10.75 0.5 0
10.5 0.75 0
10.75 0.75 0
10.75 0.5 0
11 0.5 0
10.75 0.75 0
11 0.75 0
10.5 0.75 0
10.75 0.75 0
10.5 1 0
10.75 1 0
10.75 0.75 0
11 0.75 0
10.75 1 0
11 1 0
11 0 0
11.25 0 0
11 0.25 0
11.25 0.25 0
11.25 0 0
11.5 0 0
11.25 0.25 0
11.5 0.25 0
11 0.25 0
11.25 0.25 0
11 0.5 0
11.25 0.5 0
11.25 0.25 0
11.5 0.25 0
11.25 0.5 0
11.5 0.5 0
11.5 0 0
11.75 0 0
11.5 0.25 0
11.75 0.25 0
11.75 0 0
12 0 0
11.75 0.25 0
12 0.25 0
11.5 0.25 0
11.75 0.25 0
11.5 0.5 0
11.75 0.5 0
11.75 0.25 0
12 0.25 0
11.75 0.5 0
12 0.5 0
11 0.5 0
11.25 0.5 0
11 0.75 0
11.25 0.75 0
11.25 0.5 0
11.5 0.5 0
11.25 0.75 0
11.5 0.75 0
11 0.75 0
11.25 0.75 0
11 1 0
11.25 1 0
11.25 0.75 0
11.5 0.75 0
11.25 1 0
11.5 1 0
11.5 0.5 0
11.75 0.5 0
11.5 0.75 0
11.75 0.75 0
11.75 0.5 0
12 0.5 0
11.75 0.75 0
12 0.75 0
11.5 0.75 0
11.75 0.75 0
11.5 1 0
11.75 1 0
11.75 0.75 0
12 0.75 0
11.75 1 0
12 1 0
12 0 0
12.25 0 0
12 0.25 0
12.25 0.25 0
12.25 0 0
12.5 0 0
12.25 0.25 0
12.5 0.25 0
12 0.25 0
12.25 0.25 0
12 0.5 0
12.25 0.5 0
12.25 0.25 0
12.5 0.25 0
12.25 0.5 0
12.5 0.5 0
12.5 0 0
12.75 0 0
12.5 0.25 0
12.75 0.25 0
12.75 0 0
13 0 0
12.75 0.25 0
13 0.25 0
12.5 0.25 0
12.75 0.25 0
12.5 0.5 0
12.75 0.5 0
12.75 0.25 0
13 0.25 0
12.75 0.5 0
13 0.5 0
12 0.5 0
12.25 0.5 0
12 0.75 0
12.25 0.75 0
12.25 0.5 0
12.5 0.5 0
12.25 0.75 0
12.5 0.75 0
12 0.75 0
12.25 0.75 0
12 1 0
12.25 1 0
12.25 0.75 0
12.5 0.75 0
12.25 1 0
12.5 1 0
12.5 0.5 0
12.75 0.5 0
12.5 0.75 0
12.75 0.75 0
12.75 0.5 0
13 0.5 0
12.75 0.75 0
13 0.75 0
12.5 0.75 0
12.75 0.75 0
12.5 1 0
12.75 1 0
12.75 0.75 0
13 0.75 0
12.75 1 0
13 1 0
13 0 0
13.25 0 0
13 0.25 0
13.25 0.25 0
13.25 0 0
13.5 0 0
13.25 0.25 0
13.5 0.25 0
13 0.25 0
13.25 0.25 0
13 0.5 0
13.25 0.5 0
13.25 0.25 0
13.5 0.25 0
13.25 0.5 0
13.5 0.5 0
13.5 0 0
13.75 0 0
13.5 0.25 0
13.75 0.25 0
13.75 0 0
14 0 0
13.75 0.25 0
14 0.25 0
13.5 0.25 0
13.75 0.25 0
13.5 0.5 0
13.75 0.5 0
13.75 0.25 0
14 0.25 0
13.75 0.5 0
14 0.5 0
13 0.5 0
13.25 0.5 0
13 0.75 0
13.25 0.75 0
13.25 0.5 0
13.5 0.5 0
13.25 0.75 0
13.5 0.75 0
13 0.75 0
13.25 0.75 0
13 1 0
13.25 1 0
13.25 0.75 0
13.5 0.75 0
13.25 1 0
13.5 1 0
13.5 0.5 0
13.75 0.5 0
13.5 0.75 0
13.75 0.75 0
13.75 0.5 0
14 0.5 0
13.75 0.75 0
14 0.75 0
13.5 0.75 0
13.75 0.75 0
13.5 1 0
13.75 1 0
13.75 0.75 0
14 0.75 0
13.75 1 0
14 1 0
14 0 0
14.25 0 0
14 0.25 0
14.25 0.25 0
14.25 0 0
14.5 0 0
14.25 0.25 0
14.5 0.25 0
14 0.25 0
14.25 0.25 0
14 0.5 0
14.25 0.5 0
14.25 0.25 0
14.5 0.25 0
14.25 0.5 0
14.5 0.5 0
14.5 0 0
14.75 0 0
14.5 0.25 0
14.75 0.25 0
14.75 0 0
15 0 0
14.75 0.25 0
15 0.25 0
14.5 0.25 0
14.75 0.25 0
14.5 0.5 0
14.75 0.5 0
14.75 0.25 0
15 0.25 0
14.75 0.5 0
15 0.5 0
14 0.5 0
14.25 0.5 0
14 0.75 0
14.25 0.75 0
14.25 0.5 0
14.5 0.5 0
14.25 0.75 0
14.5 0.75 0
14 0.75 0
14.25 0.75 0
14 1 0
14.25 1 0
14.25 0.75 0
14.5 0.75 0
14.25 1 0
14.5 1 0
14.5 0.5 0
14.75 0.5 0
14.5 0.75 0
14.75 0.75 0
14.75 0.5 0
15 0.5 0
14.75 0.75 0
15 0.75 0
[...]
POINT_DATA 23040
SCALARS State_OptProblem double 1
LOOKUP_TABLE default
0 0 0 -0.00035202 0 0 -0.00035202 -0.000672552 0 -0.00035202 0 -0.000604068 -0.00035202 -0.000672552 -0.000604068 -0.00114761 0 0 -0.000672552 -0.000933609 0 0 -0.000933609 -0.00111374 -0.000672552 -0.000933609 -0.00114761 -0.00157695 -0.000933609 -0.00111374 -0.00157695 -0.00185115 0 -0.000604068 0 -0.000669367 -0.000604068 -0.00114761 -0.000669367 -0.00125577 0 -0.000669367 0 -0.000488951 -0.000669367 -0.00125577 -0.000488951 -0.000886304 -0.00114761 -0.00157695 -0.00125577 -0.00168582 -0.00157695 -0.00185115 -0.00168582 -0.00190404 -0.00125577 -0.00168582 -0.000886304 -0.00111129 -0.00168582 -0.00190404 -0.00111129 -0.0011033 0 0 -0.00111374 -0.00120019 0 0 -0.00120019 -0.00119006 -0.00111374 -0.00120019 -0.00185115 -0.00194631 -0.00120019 -0.00119006 -0.00194631 -0.00185768 0 0 -0.00119006 -0.00109022 0 0 -0.00109022 -0.000916331 -0.00119006 -0.00109022 -0.00185768 -0.00159968 -0.00109022 -0.000916331 -0.00159968 -0.00120391 -0.00185115 -0.00194631 -0.00190404 -0.00187875 -0.00194631 -0.00185768 -0.00187875 -0.0016052 -0.00190404 -0.00187875 -0.0011033 -0.000828666 -0.00187875 -0.0016052 -0.000828666 -0.000284168 -0.00185768 -0.00159968 -0.0016052 -0.00110553 -0.00159968 -0.00120391 -0.00110553 -0.000426184 -0.0016052 -0.00110553 -0.000284168 0.000502611 -0.00110553 -0.000426184 0.000502611 0.00147591 0 0 -0.000916331 -0.000690978 0 0 -0.000690978 -0.000441227 -0.000916331 -0.000690978 -0.00120391 -0.000715541 -0.000690978 -0.000441227 -0.000715541 -0.000188613 0 0 -0.000441227 -0.000195923 0 0 -0.000195923 1.70775e-05 -0.000441227 -0.000195923 -0.000188613 0.00031935 -0.000195923 1.70775e-05 0.00031935 0.000752861 -0.00120391 -0.000715541 -0.000426184 0.000367014 -0.000715541 -0.000188613 0.000367014 0.00119543 -0.000426184 0.000367014 0.00147591 0.00255691 0.000367014 0.00119543 0.00255691 0.00365095 -0.000188613 0.00031935 0.00119543 0.00197527 0.00031935 0.000752861 0.00197527 0.00262564 0.00119543 0.00197527 0.00365095 0.00465635 0.00197527 0.00262564 0.00465635 0.00547434 0 0 1.70775e-05 0.000173471 0 0 0.000173471 0.000254662 1.70775e-05 0.000173471 0.000752861 0.00106367 0.000173471 0.000254662 0.00106367 0.00121523 0 0 0.000254662 0.000249359 0 0 0.000249359 0.000154508 0.000254662 0.000249359 0.00121523 0.00118595 0.000249359 0.000154508 0.00118595 0.000971163 0.000752861 0.00106367 0.00262564 0.00307644 0.00106367 0.00121523 0.00307644 0.00327519 0.00262564 0.00307644 0.00547434 0.00601915 0.00307644 0.00327519 0.00601915 0.00622721 0.00121523 0.00118595 0.00327519 0.00319223 0.00118595 0.000971163 0.00319223 0.00282373 0.00327519 0.00319223 0.00622721 0.0060644 0.00319223 0.00282373 0.0060644 0.00553032 0 0 0.000154508 -2.44531e-05 0 0 -2.44531e-05 -0.000274001 0.000154508 -2.44531e-05 0.000971163 0.000583581 -2.44531e-05 -0.000274001 0.000583581 5.23191e-05 0 0 -0.000274001 -0.000573559 0 0 -0.000573559 -0.000897126 -0.000274001 -0.000573559 5.23191e-05 -0.000579349 -0.000573559 -0.000897126 -0.000579349 -0.00125748 0.000971163 0.000583581 0.00282373 0.00219233 0.000583581 5.23191e-05 0.00219233 0.00134541 0.00282373 0.00219233 0.00553032 0.00465909 0.00219233 0.00134541 0.00465909 0.00351679 5.23191e-05 -0.000579349 0.00134541 0.000351272 -0.000579349 -0.00125748 0.000351272 -0.0007065 0.00134541 0.000351272 0.00351679 0.00219583 0.000351272 -0.0007065 0.00219583 0.000806849 0 0 -0.000897126 -0.00121549 0 0 -0.00121549 -0.001499 -0.000897126 -0.00121549 -0.00125748 -0.00192206 -0.00121549 -0.001499 -0.00192206 -0.00251275 0 0 -0.001499 -0.00172083 0 0 -0.00172083 -0.00186032 -0.001499 -0.00172083 -0.00251275 -0.00297536 -0.00172083 -0.00186032 -0.00297536 -0.00326864 -0.00125748 -0.00192206 -0.0007065 -0.00173636 -0.00192206 -0.00251275 -0.00173636 -0.00264753 -0.0007065 -0.00173636 0.000806849 -0.00053138 -0.00173636 -0.00264753 -0.00053138 -0.00170365 -0.00251275 -0.00297536 -0.00264753 -0.00335976 -0.00297536 -0.00326864 -0.00335976 -0.00381332 -0.00264753 -0.00335976 -0.00170365 -0.00261093 -0.00335976 -0.00381332 -0.00261093 -0.00318275 0 0 -0.00186032 -0.00190608 0 0 -0.00190608 -0.00185804 -0.00186032 -0.00190608 -0.00326864 -0.00337033 -0.00190608 -0.00185804 -0.00337033 -0.00328113 0 0 -0.00185804 -0.00172777 0 0 -0.00172777 -0.00153651 -0.00185804 -0.00172777 -0.00328113 -0.00302509 -0.00172777 -0.00153651 -0.00302509 -0.00264549 -0.00326864 -0.00337033 -0.00381332 -0.00397762 -0.00337033 -0.00328113 -0.00397762 -0.00385668 -0.00381332 -0.00397762 -0.00318275 -0.00338762 -0.00397762 -0.00385668 -0.00338762 -0.00323878 -0.00328113 -0.00302509 -0.00385668 -0.00348907 -0.00302509 -0.00264549 -0.00348907 -0.00294103 -0.00385668 -0.00348907 -0.00323878 -0.00279272 -0.00348907 -0.00294103 -0.00279272 -0.00213857 0 0 -0.00153651 -0.00131075 0 0 -0.00131075 -0.00107589 -0.00153651 -0.00131075 -0.00264549 -0.00219572 -0.00131075 -0.00107589 -0.00219572 -0.00172644 0 0 -0.00107589 -0.000849216 0 0 -0.000849216 -0.000634038 -0.00107589 -0.000849216 -0.00172644 -0.00127157 -0.000849216 -0.000634038 -0.00127157 -0.000836907 -0.00264549 -0.00219572 -0.00294103 -0.0022923 -0.00219572 -0.00172644 -0.0022923 -0.00161657 -0.00294103 -0.0022923 -0.00213857 -0.00137834 -0.0022923 -0.00161657 -0.00137834 -0.000600684 -0.00172644 -0.00127157 -0.00161657 -0.000960653 -0.00127157 -0.000836907 -0.000960653 -0.000328443 -0.00161657 -0.000960653 -0.000600684 0.000145989 -0.000960653 -0.000328443 0.000145989 0.000872559 0 0 -0.000634038 -0.000417442 0 0 -0.000417442 -0.000173569 -0.000634038 -0.000417442 -0.000836907 -0.000396209 -0.000417442 -0.000173569 -0.000396209 0.000101313 0 0 -0.000173569 0.000126429 0 0 0.000126429 0.000498584 -0.000173569 0.000126429 0.000101313 0.000710042 0.000126429 0.000498584 0.000710042 0.00145542 -0.000836907 -0.000396209 -0.000328443 0.000323259 -0.000396209 0.000101313 0.000323259 0.00107105 -0.000328443 0.000323259 0.000872559 0.00165105 0.000323259 0.00107105 0.00165105 0.00259141 0.000101313 0.000710042 0.00107105 0.00199075 0.000710042 0.00145542 0.00199075 0.00310623 0.00107105 0.00199075 0.00259141 0.00379049 0.00199075 0.00310623 0.00379049 0.0052594 0 0 0.000498584 0.000927691 0 0 0.000927691 0.0013521 0.000498584 0.000927691 0.00145542 0.00229682 0.000927691 0.0013521 0.00229682 0.00309815 0 0 0.0013521 0.00165904 0 0 0.00165904 0.00169716 0.0013521 0.00165904 0.00309815 0.00362139 0.00165904 0.00169716 0.00362139 0.00355722 0.00145542 0.00229682 0.00310623 0.00433304 0.00229682 0.00309815 0.00433304 0.00543656 0.00310623 0.00433304 0.0052594 0.00684666 0.00433304 0.00543656 0.00684666 0.00818693 0.00309815 0.00362139 0.00543656 0.00602994 0.00362139 0.00355722 0.00602994 0.00563381 0.00543656 0.00602994 0.00818693 0.00871173 0.00602994 0.00563381 0.00871173 0.00775528 0 0 0.00169716 0.00130877 0 0 0.00130877 0.000377091 0.00169716 0.00130877 0.00355722 0.00259749 0.00130877 0.000377091 0.00259749 0.000537993 0 0 0.000377091 -0.00112539 0 0 -0.00112539 -0.00310653 0.000377091 -0.00112539 0.000537993 -0.00262022 -0.00112539 -0.00310653 -0.00262022 -0.00661675 0.00355722 0.00259749 0.00563381 0.0038056 0.00259749 0.000537993 0.0038056 0.00031683 0.00563381 0.0038056 0.00775528 0.00476637 0.0038056 0.00031683 0.00476637 -0.000407616 0.000537993 -0.00262022 0.00031683 -0.00468025 -0.00262022 -0.00661675 -0.00468025 -0.0105847 0.00031683 -0.00468025 -0.000407616 -0.00726108 -0.00468025 -0.0105847 -0.00726108 -0.0145505 0 0 -0.00310653 -0.00535918 0 0 -0.00535918 -0.00760426 -0.00310653 -0.00535918 -0.00661675 -0.0109645 -0.00535918 -0.00760426 -0.0109645 -0.0150736 0 0 -0.00760426 -0.00955748 0 0 -0.00955748 -0.0109912 -0.00760426 -0.00955748 -0.0150736 -0.0184214 -0.00955748 -0.0109912 -0.0184214 -0.0206846 -0.00661675 -0.0109645 -0.0105847 -0.0164577 -0.0109645 -0.0150736 -0.0164577 -0.0213192 -0.0105847 -0.0164577 -0.0145505 -0.020556 -0.0164577 -0.0213192 -0.020556 -0.0237229 -0.0150736 -0.0184214 -0.0213192 -0.0245186 -0.0184214 -0.0206846 -0.0245186 -0.0259739 -0.0213192 -0.0245186 -0.0237229 -0.0234566 -0.0245186 -0.0259739 -0.0234566 -0.0205898 0 0 -0.0109912 -0.011767 0 0 -0.011767 -0.0118323 -0.0109912 -0.011767 -0.0206846 -0.0217683 -0.011767 -0.0118323 -0.0217683 -0.0217267 0 0 -0.0118323 -0.0111997 0 0 -0.0111997 -0.00993216 -0.0118323 -0.0111997 -0.0217267 -0.0206466 -0.0111997 -0.00993216 -0.0206466 -0.0185877 -0.0206846 -0.0217683 -0.0259739 -0.0261109 -0.0217683 -0.0217267 -0.0261109 -0.0255133 -0.0259739 -0.0261109 -0.0205898 -0.0170837 -0.0261109 -0.0255133 -0.0170837 -0.0149816 -0.0217267 -0.0206466 -0.0255133 -0.0245078 -0.0206466 -0.0185877 -0.0245078 -0.0229716 -0.0255133 -0.0245078 -0.0149816 -0.0152188 -0.0245078 -0.0229716 -0.0152188 -0.0170908 0 0 -0.00993216 -0.00814737 0 0 -0.00814737 -0.00603026 -0.00993216 -0.00814737 -0.0185877 -0.015622 -0.00814737 -0.00603026 -0.015622 -0.0119336 0 0 -0.00603026 -0.00383005 0 0 -0.00383005 -0.00182577 -0.00603026 -0.00383005 -0.0119336 -0.00788649 -0.00383005 -0.00182577 -0.00788649 -0.00399224 -0.0185877 -0.015622 -0.0229716 -0.0204959 -0.015622 -0.0119336 -0.0204959 -0.0167767 -0.0229716 -0.0204959 -0.0170908 -0.01875 -0.0204959 -0.0167767 -0.01875 -0.0183683 -0.0119336 -0.00788649 -0.0167767 -0.0119497 -0.00788649 -0.00399224 -0.0119497 -0.00664635 -0.0167767 -0.0119497 -0.0183683 -0.015166 -0.0119497 -0.00664635 -0.015166 -0.00970885 0 0 -0.00182577 -0.000265764 0 0 -0.000265764 0.000694282 -0.00182577 -0.000265764 -0.00399224 -0.000780338 -0.000265764 0.000694282 -0.000780338 0.00136165 0 0 0.000694282 0.00102744 0 0 0.00102744 0.000831889 0.000694282 0.00102744 0.00136165 0.00229843 0.00102744 0.000831889 0.00229843 0.00216372 -0.00399224 -0.000780338 -0.00664635 -0.00176106 -0.000780338 0.00136165 -0.00176106 0.00190527 -0.00664635 -0.00176106 -0.00970885 -0.00344976 -0.00176106 0.00190527 -0.00344976 0.00204629 0.00136165 0.00229843 0.00190527 0.0039222 0.00229843 0.00216372 0.0039222 0.00431867 0.00190527 0.0039222 0.00204629 0.00572076 0.0039222 0.00431867 0.00572076 0.00725917 0 0 0.000831889 0.000292209 0 0 0.000292209 -0.000376644 0.000831889 0.000292209 0.00216372 0.00129034 0.000292209 -0.000376644 0.00129034 9.48629e-05 0 0 -0.000376644 -0.000982619 0 0 -0.000982619 -0.00139294 -0.000376644 -0.000982619 9.48629e-05 -0.00103645 -0.000982619 -0.00139294 -0.00103645 -0.00182758 0.00216372 0.00129034 0.00431867 0.00349443 0.00129034 9.48629e-05 0.00349443 0.00203549 0.00431867 0.00349443 0.00725917 0.00699087 0.00349443 0.00203549 0.00699087 0.00561313 9.48629e-05 -0.00103645 0.00203549 0.000522978 -0.00103645 -0.00182758 0.000522978 -0.00060546 0.00203549 0.000522978 0.00561313 0.0038953 0.000522978 -0.00060546 0.0038953 0.00245898 0 0 -0.00139294 -0.00154841 0 0 -0.00154841 -0.00145801 -0.00139294 -0.00154841 -0.00182758 -0.00214673 -0.00154841 -0.00145801 -0.00214673 -0.00199878 0 0 -0.00145801 -0.00118061 0 0 -0.00118061 -0.000801279 -0.00145801 -0.00118061 -0.00199878 -0.00149028 -0.00118061 -0.000801279 -0.00149028 -0.00078276 -0.00182758 -0.00214673 -0.00060546 -0.00111983 -0.00214673 -0.00199878 -0.00111983 -0.000994757 -0.00060546 -0.00111983 0.00245898 0.00166783 -0.00111983 -0.000994757 0.00166783 0.00161632 -0.00199878 -0.00149028 -0.000994757 -0.000361333 -0.00149028 -0.00078276 -0.000361333 0.000561191 -0.000994757 -0.000361333 0.00161632 0.00218545 -0.000361333 0.000561191 0.00218545 0.00312946 0 0 -0.000801279 -0.000408708 0 0 -0.000408708 -7.77285e-05 -0.000801279 -0.000408708 -0.00078276 -4.74429e-05 -0.000408708 -7.77285e-05 -4.74429e-05 0.000569911 0 0 -7.77285e-05 0.000141147 0 0 0.000141147 0.000225303 -7.77285e-05 0.000141147 0.000569911 0.000970395 0.000141147 0.000225303 0.000970395 0.00110946 -0.00078276 -4.74429e-05 0.000561191 0.00153286 -4.74429e-05 0.000569911 0.00153286 0.00234625 0.000561191 0.00153286 0.00312946 0.00416408 0.00153286 0.00234625 0.00416408 0.00503722 0.000569911 0.000970395 0.00234625 0.00285917 0.000970395 0.00110946 0.00285917 0.00300678 0.00234625 0.00285917 0.00503722 0.00557319 0.00285917 0.00300678 0.00557319 0.00568967 0 0 0.000225303 0.000177936 0 0 0.000177936 2.21925e-05 0.000225303 0.000177936 0.00110946 0.000993066 0.000177936 2.21925e-05 0.000993066 0.000666134 0 0 2.21925e-05 -0.000206536 0 0 -0.000206536 -0.000468396 2.21925e-05 -0.000206536 0.000666134 0.000197391 -0.000206536 -0.000468396 0.000197391 -0.000335955 0.00110946 0.000993066 0.00300678 0.00279638 0.000993066 0.000666134 0.00279638 0.00229079 0.00300678 0.00279638 0.00568967 0.00539199 0.00279638 0.00229079 0.00539199 0.00475212 0.000666134 0.000197391 0.00229079 0.0015862 0.000197391 -0.000335955 0.0015862 0.000790091 0.00229079 0.0015862 0.00475212 0.00388084 0.0015862 0.000790091 0.00388084 0.00290047 0 0 -0.000468396 -0.000725675 0 0 -0.000725675 -0.000947506 -0.000468396 -0.000725675 -0.000335955 -0.000861054 -0.000725675 -0.000947506 -0.000861054 -0.00131834 0 0 -0.000947506 -0.00111246 0 0 -0.00111246 -0.00120932 -0.000947506 -0.00111246 -0.00131834 -0.00166626 -0.00111246 -0.00120932 -0.00166626 -0.00188243 -0.000335955 -0.000861054 0.000790091 3.15115e-06 -0.000861054 -0.00131834 3.15115e-06 -0.000692689 0.000790091 3.15115e-06 0.00290047 0.00192361 3.15115e-06 -0.000692689 0.00192361 0.00104055 -0.00131834 -0.00166626 -0.000692689 -0.00123992 -0.00166626 -0.00188243 -0.00123992 -0.00160604 -0.000692689 -0.00123992 0.00104055 0.000315022 -0.00123992 -0.00160604 0.000315022 -0.000214129 0 0 -0.00120932 -0.00123646 0 0 -0.00123646 -0.00120046 -0.00120932 -0.00123646 -0.00188243 -0.00196229 -0.00123646 -0.00120046 -0.00196229 -0.00191656 0 0 -0.00120046 -0.00111436 0 0 -0.00111436 -0.000995781 -0.00120046 -0.00111436 -0.00191656 -0.00176821 -0.00111436 -0.000995781 -0.00176821 -0.00154948 -0.00188243 -0.00196229 -0.00160604 -0.00178125 -0.00196229 -0.00191656 -0.00178125 -0.00177504 -0.00160604 -0.00178125 -0.000214129 -0.000528852 -0.00178125 -0.00177504 -0.000528852 -0.000628547 -0.00191656 -0.00176821 -0.00177504 -0.00161323 -0.00176821 -0.00154948 -0.00161323 -0.00133532 -0.00177504 -0.00161323 -0.000628547 -0.000529019 -0.00161323 -0.00133532 -0.000529019 -0.000263284 0 0 -0.000995781 -0.000864988 0 0 -0.000864988 -0.000742774 -0.000995781 -0.000864988 -0.00154948 -0.00129864 -0.000864988 -0.000742774 -0.00129864 -0.00105628 0 0 -0.000742774 -0.000648187 0 0 -0.000648187 -0.000596197 -0.000742774 -0.000648187 -0.00105628 -0.000860895 -0.000648187 -0.000596197 -0.000860895 -0.000743915 -0.00154948 -0.00129864 -0.00133532 -0.000991756 -0.00129864 -0.00105628 -0.000991756 -0.00063973 -0.00133532 -0.000991756 -0.000263284 0.000117871 -0.000991756 -0.00063973 0.000117871 0.000548251 -0.00105628 -0.000860895 -0.00063973 -0.00033701 -0.000860895 -0.000743915 -0.00033701 -0.000133883 -0.00063973 -0.00033701 0.000548251 0.000953323 -0.00033701 -0.000133883 0.000953323 0.00126188 0 0 -0.000596197 -0.000595607 0 0 -0.000595607 -0.000647656 -0.000596197 -0.000595607 -0.000743915 -0.000724978 -0.000595607 -0.000647656 -0.000724978 -0.000808487 0 0 -0.000647656 -0.000745704 0 0 -0.000745704 -0.000876195 -0.000647656 -0.000745704 -0.000808487 -0.00098247 -0.000745704 -0.000876195 -0.00098247 -0.00122033 -0.000743915 -0.000724978 -0.000133883 -6.46534e-05 -0.000724978 -0.000808487 -6.46534e-05 -0.000140817 -0.000133883 -6.46534e-05 0.00126188 0.00141992 -6.46534e-05 -0.000140817 0.00141992 0.0014029 -0.000808487 -0.00098247 -0.000140817 -0.000348032 -0.00098247 -0.00122033 -0.000348032 -0.00064819 -0.000140817 -0.000348032 0.0014029 0.00122235 -0.000348032 -0.00064819 0.00122235 0.00092428 0 0 -0.000876195 -0.0010208 0 0 -0.0010208 -0.00115927 -0.000876195 -0.0010208 -0.00122033 -0.00148526 -0.0010208 -0.00115927 -0.00148526 -0.00173644 0 0 -0.00115927 -0.0012725 0 0 -0.0012725 -0.00134504 -0.00115927 -0.0012725 -0.00173644 -0.00193555 -0.0012725 -0.00134504 -0.00193555 -0.00205226 -0.00122033 -0.00148526 -0.00064819 -0.000986392 -0.00148526 -0.00173644 -0.000986392 -0.00130121 -0.00064819 -0.000986392 0.00092428 0.000579518 -0.000986392 -0.00130121 0.000579518 0.000268432 -0.00173644 -0.00193555 -0.00130121 -0.0015356 -0.00193555 -0.00205226 -0.0015356 -0.00164599 -0.00130121 -0.0015356 0.000268432 6.44322e-05 -0.0015356 -0.00164599 6.44322e-05 2.05975e-05 0 0 -0.00134504 -0.00136681 0 0 -0.00136681 -0.00133378 -0.00134504 -0.00136681 -0.00205226 -0.00206766 -0.00136681 -0.00133378 -0.00206766 -0.00197551 0 0 -0.00133378 -0.00124791 0 0 -0.00124791 -0.00111646 -0.00133378 -0.00124791 -0.00197551 -0.00178167 -0.00124791 -0.00111646 -0.00178167 -0.00150229 -0.00205226 -0.00206766 -0.00164599 -0.0016076 -0.00206766 -0.00197551 -0.0016076 -0.00141575 -0.00164599 -0.0016076 2.05975e-05 0.000162384 -0.0016076 -0.00141575 0.000162384 0.000487097 -0.00197551 -0.00178167 -0.00141575 -0.00108389 -0.00178167 -0.00150229 -0.00108389 -0.00063985 -0.00141575 -0.00108389 0.000487097 0.000968598 -0.00108389 -0.00063985 0.000968598 0.00156452 0 0 -0.00111646 -0.000951061 0 0 -0.000951061 -0.000766734 -0.00111646 -0.000951061 -0.00150229 -0.00116171 -0.000951061 -0.000766734 -0.00116171 -0.000790185 0 0 -0.000766734 -0.000580648 0 0 -0.000580648 -0.000410733 -0.000766734 -0.000580648 -0.000790185 -0.000421674 -0.000580648 -0.000410733 -0.000421674 -9.11518e-05 -0.00150229 -0.00116171 -0.00063985 -0.000121782 -0.00116171 -0.000790185 -0.000121782 0.00042547 -0.00063985 -0.000121782 0.00156452 0.00222326 -0.000121782 0.00042547 0.00222326 0.00288929 -0.000790185 -0.000421674 0.00042547 0.000953508 -0.000421674 -9.11518e-05 0.000953508 0.00141361 0.00042547 0.000953508 0.00288929 0.0035066 0.000953508 0.00141361 0.0035066 0.0040213 0 0 -0.000410733 -0.000273945 0 0 -0.000273945 -0.000184317 -0.000410733 -0.000273945 -9.11518e-05 0.000168527 -0.000273945 -0.000184317 0.000168527 0.000330302 0 0 -0.000184317 -0.000150985 0 0 -0.000150985 -0.000176578 -0.000184317 -0.000150985 0.000330302 0.000376641 -0.000150985 -0.000176578 0.000376641 0.000302672 -9.11518e-05 0.000168527 0.00141361 0.00176062 0.000168527 0.000330302 0.00176062 0.00195761 0.00141361 0.00176062 0.0040213 0.00438471 0.00176062 0.00195761 0.00438471 0.00455761 0.000330302 0.000376641 0.00195761 0.0019809 0.000376641 0.000302672 0.0019809 0.00182434 0.00195761 0.0019809 0.00455761 0.00451529 0.0019809 0.00182434 0.00451529 0.00425229 0 0 -0.000176578 -0.000256302 0 0 -0.000256302 -0.000378003 -0.000176578 -0.000256302 0.000302672 0.000117953 -0.000256302 -0.000378003 0.000117953 -0.000153651 0 0 -0.000378003 -0.000523306 0 0 -0.000523306 -0.000669709 -0.000378003 -0.000523306 -0.000153651 -0.000476187 -0.000523306 -0.000669709 -0.000476187 -0.000805705 0.000302672 0.000117953 0.00182434 0.00150183 0.000117953 -0.000153651 0.00150183 0.00104713 0.00182434 0.00150183 0.00425229 0.00378533 0.00150183 0.00104713 0.00378533 0.00315331 -0.000153651 -0.000476187 0.00104713 0.000510817 -0.000476187 -0.000805705 0.000510817 -4.54781e-05 0.00104713 0.000510817 0.00315331 0.00241378 0.000510817 -4.54781e-05 0.00241378 0.00163653 0 0 -0.000669709 -0.000793387 0 0 -0.000793387 -0.000872296 -0.000669709 -0.000793387 -0.000805705 -0.00109569 -0.000793387 -0.000872296 -0.00109569 -0.00130308 0 0 -0.000872296 -0.000889168 0 0 -0.000889168 -0.000833973 -0.000872296 -0.000889168 -0.00130308 -0.00139402 -0.000889168 -0.000833973 -0.00139402 -0.00134862 -0.000805705 -0.00109569 -4.54781e-05 -0.000556621 -0.00109569 -0.00130308 -0.000556621 -0.000962266 -4.54781e-05 -0.000556621 0.00163653 0.000895072 -0.000556621 -0.000962266 0.000895072 0.00025745 -0.00130308 -0.00139402 -0.000962266 -0.00121478 -0.00139402 -0.00134862 -0.00121478 -0.00128569 -0.000962266 -0.00121478 0.00025745 -0.00022241 -0.00121478 -0.00128569 -0.00022241 -0.000511685 0 0 -0.000833973 -0.000705478 0 0 -0.000705478 -0.000511672 -0.000833973 -0.000705478 -0.00134862 -0.00116395 -0.000705478 -0.000511672 -0.00116395 -0.000854878 0 0 -0.000511672 -0.00026893 0 0 -0.00026893 0 -0.000511672 -0.00026893 -0.000854878 -0.