# vtk DataFile Version 3.0
#This file was generated by the deal.II library on 2012/5/30 at 14:40:59
ASCII
DATASET UNSTRUCTURED_GRID

POINTS 23040 double
0 0 0
0.25 0 0
0 0.25 0
0.25 0.25 0
0.25 0 0
0.5 0 0
0.25 0.25 0
0.5 0.25 0
0 0.25 0
0.25 0.25 0
0 0.5 0
0.25 0.5 0
0.25 0.25 0
0.5 0.25 0
0.25 0.5 0
0.5 0.5 0
0.5 0 0
0.75 0 0
0.5 0.25 0
0.75 0.25 0
0.75 0 0
1 0 0
0.75 0.25 0
1 0.25 0
0.5 0.25 0
0.75 0.25 0
0.5 0.5 0
0.75 0.5 0
0.75 0.25 0
1 0.25 0
0.75 0.5 0
1 0.5 0
0 0.5 0
0.25 0.5 0
0 0.75 0
0.25 0.75 0
0.25 0.5 0
0.5 0.5 0
0.25 0.75 0
0.5 0.75 0
0 0.75 0
0.25 0.75 0
0 1 0
0.25 1 0
0.25 0.75 0
0.5 0.75 0
0.25 1 0
0.5 1 0
0.5 0.5 0
0.75 0.5 0
0.5 0.75 0
0.75 0.75 0
0.75 0.5 0
1 0.5 0
0.75 0.75 0
1 0.75 0
0.5 0.75 0
0.75 0.75 0
0.5 1 0
0.75 1 0
0.75 0.75 0
1 0.75 0
0.75 1 0
1 1 0
1 0 0
1.25 0 0
1 0.25 0
1.25 0.25 0
1.25 0 0
1.5 0 0
1.25 0.25 0
1.5 0.25 0
1 0.25 0
1.25 0.25 0
1 0.5 0
1.25 0.5 0
1.25 0.25 0
1.5 0.25 0
1.25 0.5 0
1.5 0.5 0
1.5 0 0
1.75 0 0
1.5 0.25 0
1.75 0.25 0
1.75 0 0
2 0 0
1.75 0.25 0
2 0.25 0
1.5 0.25 0
1.75 0.25 0
1.5 0.5 0
1.75 0.5 0
1.75 0.25 0
2 0.25 0
1.75 0.5 0
2 0.5 0
1 0.5 0
1.25 0.5 0
1 0.75 0
1.25 0.75 0
1.25 0.5 0
1.5 0.5 0
1.25 0.75 0
1.5 0.75 0
1 0.75 0
1.25 0.75 0
1 1 0
1.25 1 0
1.25 0.75 0
1.5 0.75 0
1.25 1 0
1.5 1 0
1.5 0.5 0
1.75 0.5 0
1.5 0.75 0
1.75 0.75 0
1.75 0.5 0
2 0.5 0
1.75 0.75 0
2 0.75 0
1.5 0.75 0
1.75 0.75 0
1.5 1 0
1.75 1 0
1.75 0.75 0
2 0.75 0
1.75 1 0
2 1 0
2 0 0
2.25 0 0
2 0.25 0
2.25 0.25 0
2.25 0 0
2.5 0 0
2.25 0.25 0
2.5 0.25 0
2 0.25 0
2.25 0.25 0
2 0.5 0
2.25 0.5 0
2.25 0.25 0
2.5 0.25 0
2.25 0.5 0
2.5 0.5 0
2.5 0 0
2.75 0 0
2.5 0.25 0
2.75 0.25 0
2.75 0 0
3 0 0
2.75 0.25 0
3 0.25 0
2.5 0.25 0
2.75 0.25 0
2.5 0.5 0
2.75 0.5 0
2.75 0.25 0
3 0.25 0
2.75 0.5 0
3 0.5 0
2 0.5 0
2.25 0.5 0
2 0.75 0
2.25 0.75 0
2.25 0.5 0
2.5 0.5 0
2.25 0.75 0
2.5 0.75 0
2 0.75 0
2.25 0.75 0
2 1 0
2.25 1 0
2.25 0.75 0
2.5 0.75 0
2.25 1 0
2.5 1 0
2.5 0.5 0
2.75 0.5 0
2.5 0.75 0
2.75 0.75 0
2.75 0.5 0
3 0.5 0
2.75 0.75 0
3 0.75 0
2.5 0.75 0
2.75 0.75 0
2.5 1 0
2.75 1 0
2.75 0.75 0
3 0.75 0
2.75 1 0
3 1 0
3 0 0
3.25 0 0
3 0.25 0
3.25 0.25 0
3.25 0 0
3.5 0 0
3.25 0.25 0
3.5 0.25 0
3 0.25 0
3.25 0.25 0
3 0.5 0
3.25 0.5 0
3.25 0.25 0
3.5 0.25 0
3.25 0.5 0
3.5 0.5 0
3.5 0 0
3.75 0 0
3.5 0.25 0
3.75 0.25 0
3.75 0 0
4 0 0
3.75 0.25 0
4 0.25 0
3.5 0.25 0
3.75 0.25 0
3.5 0.5 0
3.75 0.5 0
3.75 0.25 0
4 0.25 0
3.75 0.5 0
4 0.5 0
3 0.5 0
3.25 0.5 0
3 0.75 0
3.25 0.75 0
3.25 0.5 0
3.5 0.5 0
3.25 0.75 0
3.5 0.75 0
3 0.75 0
3.25 0.75 0
3 1 0
3.25 1 0
3.25 0.75 0
3.5 0.75 0
3.25 1 0
3.5 1 0
3.5 0.5 0
3.75 0.5 0
3.5 0.75 0
3.75 0.75 0
3.75 0.5 0
4 0.5 0
3.75 0.75 0
4 0.75 0
3.5 0.75 0
3.75 0.75 0
3.5 1 0
3.75 1 0
3.75 0.75 0
4 0.75 0
3.75 1 0
4 1 0
4 0 0
4.25 0 0
4 0.25 0
4.25 0.25 0
4.25 0 0
4.5 0 0
4.25 0.25 0
4.5 0.25 0
4 0.25 0
4.25 0.25 0
4 0.5 0
4.25 0.5 0
4.25 0.25 0
4.5 0.25 0
4.25 0.5 0
4.5 0.5 0
4.5 0 0
4.75 0 0
4.5 0.25 0
4.75 0.25 0
4.75 0 0
5 0 0
4.75 0.25 0
5 0.25 0
4.5 0.25 0
4.75 0.25 0
4.5 0.5 0
4.75 0.5 0
4.75 0.25 0
5 0.25 0
4.75 0.5 0
5 0.5 0
4 0.5 0
4.25 0.5 0
4 0.75 0
4.25 0.75 0
4.25 0.5 0
4.5 0.5 0
4.25 0.75 0
4.5 0.75 0
4 0.75 0
4.25 0.75 0
4 1 0
4.25 1 0
4.25 0.75 0
4.5 0.75 0
4.25 1 0
4.5 1 0
4.5 0.5 0
4.75 0.5 0
4.5 0.75 0
4.75 0.75 0
4.75 0.5 0
5 0.5 0
4.75 0.75 0
5 0.75 0
4.5 0.75 0
4.75 0.75 0
4.5 1 0
4.75 1 0
4.75 0.75 0
5 0.75 0
4.75 1 0
5 1 0
5 0 0
5.25 0 0
5 0.25 0
5.25 0.25 0
5.25 0 0
5.5 0 0
5.25 0.25 0
5.5 0.25 0
5 0.25 0
5.25 0.25 0
5 0.5 0
5.25 0.5 0
5.25 0.25 0
5.5 0.25 0
5.25 0.5 0
5.5 0.5 0
5.5 0 0
5.75 0 0
5.5 0.25 0
5.75 0.25 0
5.75 0 0
6 0 0
5.75 0.25 0
6 0.25 0
5.5 0.25 0
5.75 0.25 0
5.5 0.5 0
5.75 0.5 0
5.75 0.25 0
6 0.25 0
5.75 0.5 0
6 0.5 0
5 0.5 0
5.25 0.5 0
5 0.75 0
5.25 0.75 0
5.25 0.5 0
5.5 0.5 0
5.25 0.75 0
5.5 0.75 0
5 0.75 0
5.25 0.75 0
5 1 0
5.25 1 0
5.25 0.75 0
5.5 0.75 0
5.25 1 0
5.5 1 0
5.5 0.5 0
5.75 0.5 0
5.5 0.75 0
5.75 0.75 0
5.75 0.5 0
6 0.5 0
5.75 0.75 0
6 0.75 0
5.5 0.75 0
5.75 0.75 0
5.5 1 0
5.75 1 0
5.75 0.75 0
6 0.75 0
5.75 1 0
6 1 0
6 0 0
6.25 0 0
6 0.25 0
6.25 0.25 0
6.25 0 0
6.5 0 0
6.25 0.25 0
6.5 0.25 0
6 0.25 0
6.25 0.25 0
6 0.5 0
6.25 0.5 0
6.25 0.25 0
6.5 0.25 0
6.25 0.5 0
6.5 0.5 0
6.5 0 0
6.75 0 0
6.5 0.25 0
6.75 0.25 0
6.75 0 0
7 0 0
6.75 0.25 0
7 0.25 0
6.5 0.25 0
6.75 0.25 0
6.5 0.5 0
6.75 0.5 0
6.75 0.25 0
7 0.25 0
6.75 0.5 0
7 0.5 0
6 0.5 0
6.25 0.5 0
6 0.75 0
6.25 0.75 0
6.25 0.5 0
6.5 0.5 0
6.25 0.75 0
6.5 0.75 0
6 0.75 0
6.25 0.75 0
6 1 0
6.25 1 0
6.25 0.75 0
6.5 0.75 0
6.25 1 0
6.5 1 0
6.5 0.5 0
6.75 0.5 0
6.5 0.75 0
6.75 0.75 0
6.75 0.5 0
7 0.5 0
6.75 0.75 0
7 0.75 0
6.5 0.75 0
6.75 0.75 0
6.5 1 0
6.75 1 0
6.75 0.75 0
7 0.75 0
6.75 1 0
7 1 0
7 0 0
7.25 0 0
7 0.25 0
7.25 0.25 0
7.25 0 0
7.5 0 0
7.25 0.25 0
7.5 0.25 0
7 0.25 0
7.25 0.25 0
7 0.5 0
7.25 0.5 0
7.25 0.25 0
7.5 0.25 0
7.25 0.5 0
7.5 0.5 0
7.5 0 0
7.75 0 0
7.5 0.25 0
7.75 0.25 0
7.75 0 0
8 0 0
7.75 0.25 0
8 0.25 0
7.5 0.25 0
7.75 0.25 0
7.5 0.5 0
7.75 0.5 0
7.75 0.25 0
8 0.25 0
7.75 0.5 0
8 0.5 0
7 0.5 0
7.25 0.5 0
7 0.75 0
7.25 0.75 0
7.25 0.5 0
7.5 0.5 0
7.25 0.75 0
7.5 0.75 0
7 0.75 0
7.25 0.75 0
7 1 0
7.25 1 0
7.25 0.75 0
7.5 0.75 0
7.25 1 0
7.5 1 0
7.5 0.5 0
7.75 0.5 0
7.5 0.75 0
7.75 0.75 0
7.75 0.5 0
8 0.5 0
7.75 0.75 0
8 0.75 0
7.5 0.75 0
7.75 0.75 0
7.5 1 0
7.75 1 0
7.75 0.75 0
8 0.75 0
7.75 1 0
8 1 0
8 0 0
8.25 0 0
8 0.25 0
8.25 0.25 0
8.25 0 0
8.5 0 0
8.25 0.25 0
8.5 0.25 0
8 0.25 0
8.25 0.25 0
8 0.5 0
8.25 0.5 0
8.25 0.25 0
8.5 0.25 0
8.25 0.5 0
8.5 0.5 0
8.5 0 0
8.75 0 0
8.5 0.25 0
8.75 0.25 0
8.75 0 0
9 0 0
8.75 0.25 0
9 0.25 0
8.5 0.25 0
8.75 0.25 0
8.5 0.5 0
8.75 0.5 0
8.75 0.25 0
9 0.25 0
8.75 0.5 0
9 0.5 0
8 0.5 0
8.25 0.5 0
8 0.75 0
8.25 0.75 0
8.25 0.5 0
8.5 0.5 0
8.25 0.75 0
8.5 0.75 0
8 0.75 0
8.25 0.75 0
8 1 0
8.25 1 0
8.25 0.75 0
8.5 0.75 0
8.25 1 0
8.5 1 0
8.5 0.5 0
8.75 0.5 0
8.5 0.75 0
8.75 0.75 0
8.75 0.5 0
9 0.5 0
8.75 0.75 0
9 0.75 0
8.5 0.75 0
8.75 0.75 0
8.5 1 0
8.75 1 0
8.75 0.75 0
9 0.75 0
8.75 1 0
9 1 0
9 0 0
9.25 0 0
9 0.25 0
9.25 0.25 0
9.25 0 0
9.5 0 0
9.25 0.25 0
9.5 0.25 0
9 0.25 0
9.25 0.25 0
9 0.5 0
9.25 0.5 0
9.25 0.25 0
9.5 0.25 0
9.25 0.5 0
9.5 0.5 0
9.5 0 0
9.75 0 0
9.5 0.25 0
9.75 0.25 0
9.75 0 0
10 0 0
9.75 0.25 0
10 0.25 0
9.5 0.25 0
9.75 0.25 0
9.5 0.5 0
9.75 0.5 0
9.75 0.25 0
10 0.25 0
9.75 0.5 0
10 0.5 0
9 0.5 0
9.25 0.5 0
9 0.75 0
9.25 0.75 0
9.25 0.5 0
9.5 0.5 0
9.25 0.75 0
9.5 0.75 0
9 0.75 0
9.25 0.75 0
9 1 0
9.25 1 0
9.25 0.75 0
9.5 0.75 0
9.25 1 0
9.5 1 0
9.5 0.5 0
9.75 0.5 0
9.5 0.75 0
9.75 0.75 0
9.75 0.5 0
10 0.5 0
9.75 0.75 0
10 0.75 0
9.5 0.75 0
9.75 0.75 0
9.5 1 0
9.75 1 0
9.75 0.75 0
10 0.75 0
9.75 1 0
10 1 0
10 0 0
10.25 0 0
10 0.25 0
10.25 0.25 0
10.25 0 0
10.5 0 0
10.25 0.25 0
10.5 0.25 0
10 0.25 0
10.25 0.25 0
10 0.5 0
10.25 0.5 0
10.25 0.25 0
10.5 0.25 0
10.25 0.5 0
10.5 0.5 0
10.5 0 0
10.75 0 0
10.5 0.25 0
10.75 0.25 0
10.75 0 0
11 0 0
10.75 0.25 0
11 0.25 0
10.5 0.25 0
10.75 0.25 0
10.5 0.5 0
10.75 0.5 0
10.75 0.25 0
11 0.25 0
10.75 0.5 0
11 0.5 0
10 0.5 0
10.25 0.5 0
10 0.75 0
10.25 0.75 0
10.25 0.5 0
10.5 0.5 0
10.25 0.75 0
10.5 0.75 0
10 0.75 0
10.25 0.75 0
10 1 0
10.25 1 0
10.25 0.75 0
10.5 0.75 0
10.25 1 0
10.5 1 0
10.5 0.5 0
10.75 0.5 0
10.5 0.75 0
10.75 0.75 0
10.75 0.5 0
11 0.5 0
10.75 0.75 0
11 0.75 0
10.5 0.75 0
10.75 0.75 0
10.5 1 0
10.75 1 0
10.75 0.75 0
11 0.75 0
10.75 1 0
11 1 0
11 0 0
11.25 0 0
11 0.25 0
11.25 0.25 0
11.25 0 0
11.5 0 0
11.25 0.25 0
11.5 0.25 0
11 0.25 0
11.25 0.25 0
11 0.5 0
11.25 0.5 0
11.25 0.25 0
11.5 0.25 0
11.25 0.5 0
11.5 0.5 0
11.5 0 0
11.75 0 0
11.5 0.25 0
11.75 0.25 0
11.75 0 0
12 0 0
11.75 0.25 0
12 0.25 0
11.5 0.25 0
11.75 0.25 0
11.5 0.5 0
11.75 0.5 0
11.75 0.25 0
12 0.25 0
11.75 0.5 0
12 0.5 0
11 0.5 0
11.25 0.5 0
11 0.75 0
11.25 0.75 0
11.25 0.5 0
11.5 0.5 0
11.25 0.75 0
11.5 0.75 0
11 0.75 0
11.25 0.75 0
11 1 0
11.25 1 0
11.25 0.75 0
11.5 0.75 0
11.25 1 0
11.5 1 0
11.5 0.5 0
11.75 0.5 0
11.5 0.75 0
11.75 0.75 0
11.75 0.5 0
12 0.5 0
11.75 0.75 0
12 0.75 0
11.5 0.75 0
11.75 0.75 0
11.5 1 0
11.75 1 0
11.75 0.75 0
12 0.75 0
11.75 1 0
12 1 0
12 0 0
12.25 0 0
12 0.25 0
12.25 0.25 0
12.25 0 0
12.5 0 0
12.25 0.25 0
12.5 0.25 0
12 0.25 0
12.25 0.25 0
12 0.5 0
12.25 0.5 0
12.25 0.25 0
12.5 0.25 0
12.25 0.5 0
12.5 0.5 0
12.5 0 0
12.75 0 0
12.5 0.25 0
12.75 0.25 0
12.75 0 0
13 0 0
12.75 0.25 0
13 0.25 0
12.5 0.25 0
12.75 0.25 0
12.5 0.5 0
12.75 0.5 0
12.75 0.25 0
13 0.25 0
12.75 0.5 0
13 0.5 0
12 0.5 0
12.25 0.5 0
12 0.75 0
12.25 0.75 0
12.25 0.5 0
12.5 0.5 0
12.25 0.75 0
12.5 0.75 0
12 0.75 0
12.25 0.75 0
12 1 0
12.25 1 0
12.25 0.75 0
12.5 0.75 0
12.25 1 0
12.5 1 0
12.5 0.5 0
12.75 0.5 0
12.5 0.75 0
12.75 0.75 0
12.75 0.5 0
13 0.5 0
12.75 0.75 0
13 0.75 0
12.5 0.75 0
12.75 0.75 0
12.5 1 0
12.75 1 0
12.75 0.75 0
13 0.75 0
12.75 1 0
13 1 0
13 0 0
13.25 0 0
13 0.25 0
13.25 0.25 0
13.25 0 0
13.5 0 0
13.25 0.25 0
13.5 0.25 0
13 0.25 0
13.25 0.25 0
13 0.5 0
13.25 0.5 0
13.25 0.25 0
13.5 0.25 0
13.25 0.5 0
13.5 0.5 0
13.5 0 0
13.75 0 0
13.5 0.25 0
13.75 0.25 0
13.75 0 0
14 0 0
13.75 0.25 0
14 0.25 0
13.5 0.25 0
13.75 0.25 0
13.5 0.5 0
13.75 0.5 0
13.75 0.25 0
14 0.25 0
13.75 0.5 0
14 0.5 0
13 0.5 0
13.25 0.5 0
13 0.75 0
13.25 0.75 0
13.25 0.5 0
13.5 0.5 0
13.25 0.75 0
13.5 0.75 0
13 0.75 0
13.25 0.75 0
13 1 0
13.25 1 0
13.25 0.75 0
13.5 0.75 0
13.25 1 0
13.5 1 0
13.5 0.5 0
13.75 0.5 0
13.5 0.75 0
13.75 0.75 0
13.75 0.5 0
14 0.5 0
13.75 0.75 0
14 0.75 0
13.5 0.75 0
13.75 0.75 0
13.5 1 0
13.75 1 0
13.75 0.75 0
14 0.75 0
13.75 1 0
14 1 0
14 0 0
14.25 0 0
14 0.25 0
14.25 0.25 0
14.25 0 0
14.5 0 0
14.25 0.25 0
14.5 0.25 0
14 0.25 0
14.25 0.25 0
14 0.5 0
14.25 0.5 0
14.25 0.25 0
14.5 0.25 0
14.25 0.5 0
14.5 0.5 0
14.5 0 0
14.75 0 0
14.5 0.25 0
14.75 0.25 0
14.75 0 0
15 0 0
14.75 0.25 0
15 0.25 0
14.5 0.25 0
14.75 0.25 0
14.5 0.5 0
14.75 0.5 0
14.75 0.25 0
15 0.25 0
14.75 0.5 0
15 0.5 0
14 0.5 0
14.25 0.5 0
14 0.75 0
14.25 0.75 0
14.25 0.5 0
14.5 0.5 0
14.25 0.75 0
14.5 0.75 0
14 0.75 0
14.25 0.75 0
14 1 0
14.25 1 0
14.25 0.75 0
14.5 0.75 0
14.25 1 0
14.5 1 0
14.5 0.5 0
14.75 0.5 0
14.5 0.75 0
14.75 0.75 0
14.75 0.5 0
15 0.5 0
14.75 0.75 0
15 0.75 0
[...]
POINT_DATA 23040
SCALARS State_OptProblem double 1
LOOKUP_TABLE default
0 0 0 3.82999e-05 0 0 3.82999e-05 6.55175e-05 0 3.82999e-05 0 3.80426e-05 3.82999e-05 6.55175e-05 3.80426e-05 5.84533e-05 0 0 6.55175e-05 7.19778e-05 0 0 7.19778e-05 5.06286e-05 6.55175e-05 7.19778e-05 5.84533e-05 4.57978e-05 7.19778e-05 5.06286e-05 4.57978e-05 -1.12273e-05 0 3.80426e-05 0 -2.23948e-05 3.80426e-05 5.84533e-05 -2.23948e-05 -5.97973e-05 0 -2.23948e-05 0 -0.000134946 -2.23948e-05 -5.97973e-05 -0.000134946 -0.00026904 5.84533e-05 4.57978e-05 -5.97973e-05 -0.000125556 4.57978e-05 -1.12273e-05 -0.000125556 -0.000229758 -5.97973e-05 -0.000125556 -0.00026904 -0.000402436 -0.000125556 -0.000229758 -0.000402436 -0.000536634 0 0 5.06286e-05 -2.09613e-06 0 0 -2.09613e-06 -8.58662e-05 5.06286e-05 -2.09613e-06 -1.12273e-05 -0.000118363 -2.09613e-06 -8.58662e-05 -0.000118363 -0.000275038 0 0 -8.58662e-05 -0.000196529 0 0 -0.000196529 -0.000326629 -8.58662e-05 -0.000196529 -0.000275038 -0.000474388 -0.000196529 -0.000326629 -0.000474388 -0.000704031 -1.12273e-05 -0.000118363 -0.000229758 -0.000377813 -0.000118363 -0.000275038 -0.000377813 -0.00056945 -0.000229758 -0.000377813 -0.000536634 -0.000673865 -0.000377813 -0.00056945 -0.000673865 -0.000815762 -0.000275038 -0.000474388 -0.00056945 -0.000798359 -0.000474388 -0.000704031 -0.000798359 -0.00105266 -0.00056945 -0.000798359 -0.000815762 -0.000961975 -0.000798359 -0.00105266 -0.000961975 -0.00110941 0 0 -0.000326629 -0.000466259 0 0 -0.000466259 -0.00060413 -0.000326629 -0.000466259 -0.000704031 -0.000947448 -0.000466259 -0.00060413 -0.000947448 -0.00118575 0 0 -0.00060413 -0.000728678 0 0 -0.000728678 -0.000829111 -0.00060413 -0.000728678 -0.00118575 -0.00139955 -0.000728678 -0.000829111 -0.00139955 -0.0015707 -0.000704031 -0.000947448 -0.00105266 -0.00131613 -0.000947448 -0.00118575 -0.00131613 -0.00156999 -0.00105266 -0.00131613 -0.00110941 -0.00125239 -0.00131613 -0.00156999 -0.00125239 -0.00138361 -0.00118575 -0.00139955 -0.00156999 -0.00179485 -0.00139955 -0.0015707 -0.00179485 -0.00197241 -0.00156999 -0.00179485 -0.00138361 -0.00149522 -0.00179485 -0.00197241 -0.00149522 -0.00157957 0 0 -0.000829111 -0.000896287 0 0 -0.000896287 -0.000923401 -0.000829111 -0.000896287 -0.0015707 -0.00168375 -0.000896287 -0.000923401 -0.00168375 -0.00172713 0 0 -0.000923401 -0.000906483 0 0 -0.000906483 -0.000844741 -0.000923401 -0.000906483 -0.00172713 -0.00169395 -0.000906483 -0.000844741 -0.00169395 -0.00158277 -0.0015707 -0.00168375 -0.00197241 -0.00208685 -0.00168375 -0.00172713 -0.00208685 -0.0021259 -0.00197241 -0.00208685 -0.00157957 -0.00162935 -0.00208685 -0.0021259 -0.00162935 -0.00163761 -0.00172713 -0.00169395 -0.0021259 -0.0020818 -0.00169395 -0.00158277 -0.0020818 -0.00195234 -0.0021259 -0.0020818 -0.00163761 -0.00159821 -0.0020818 -0.00195234 -0.00159821 -0.00150715 0 0 -0.000844741 -0.000740783 0 0 -0.000740783 -0.000600707 -0.000844741 -0.000740783 -0.00158277 -0.00139812 -0.000740783 -0.000600707 -0.00139812 -0.00115081 0 0 -0.000600707 -0.000434001 0 0 -0.000434001 -0.000253146 -0.000600707 -0.000434001 -0.00115081 -0.000857839 -0.000434001 -0.000253146 -0.000857839 -0.000541705 -0.00158277 -0.00139812 -0.00195234 -0.00174201 -0.00139812 -0.00115081 -0.00174201 -0.00146293 -0.00195234 -0.00174201 -0.00150715 -0.00136491 -0.00174201 -0.00146293 -0.00136491 -0.00117881 -0.00115081 -0.000857839 -0.00146293 -0.0011351 -0.000857839 -0.000541705 -0.0011351 -0.000785521 -0.00146293 -0.0011351 -0.00117881 -0.000964368 -0.0011351 -0.000785521 -0.000964368 -0.00074445 0 0 -0.000253146 -7.28052e-05 0 0 -7.28052e-05 9.14968e-05 -0.000253146 -7.28052e-05 -0.000541705 -0.00022873 -7.28052e-05 9.14968e-05 -0.00022873 5.35386e-05 0 0 9.14968e-05 0.000225167 0 0 0.000225167 0.00031661 9.14968e-05 0.000225167 5.35386e-05 0.000279792 0.000225167 0.00031661 0.000279792 0.000430801 -0.000541705 -0.00022873 -0.000785521 -0.00044568 -0.00022873 5.35386e-05 -0.00044568 -0.000147658 -0.000785521 -0.00044568 -0.00074445 -0.000545885 -0.00044568 -0.000147658 -0.000545885 -0.00039397 5.35386e-05 0.000279792 -0.000147658 8.08087e-05 0.000279792 0.000430801 8.08087e-05 0.00022131 -0.000147658 8.08087e-05 -0.00039397 -0.00030622 8.08087e-05 0.00022131 -0.00030622 -0.000287125 0 0 0.00031661 0.000359167 0 0 0.000359167 0.000352377 0.00031661 0.000359167 0.000430801 0.000496818 0.000359167 0.000352377 0.000496818 0.000479526 0 0 0.000352377 0.000301992 0 0 0.000301992 0.000218369 0.000352377 0.000301992 0.000479526 0.000391518 0.000301992 0.000218369 0.000391518 0.000252734 0.000430801 0.000496818 0.00022131 0.000268598 0.000496818 0.000479526 0.000268598 0.000231931 0.00022131 0.000268598 -0.000287125 -0.000325629 0.000268598 0.000231931 -0.000325629 -0.00039659 0.000479526 0.000391518 0.000231931 0.000132828 0.000391518 0.000252734 0.000132828 -1.18705e-06 0.000231931 0.000132828 -0.00039659 -0.000466784 0.000132828 -1.18705e-06 -0.000466784 -0.000504995 0 0 0.000218369 0.000113351 0 0 0.000113351 -3.6323e-06 0.000218369 0.000113351 0.000252734 8.4177e-05 0.000113351 -3.6323e-06 8.4177e-05 -9.95483e-05 0 0 -3.6323e-06 -0.000128811 0 0 -0.000128811 -0.000264894 -3.6323e-06 -0.000128811 -9.95483e-05 -0.000296033 -0.000128811 -0.000264894 -0.000296033 -0.000515754 0.000252734 8.4177e-05 -1.18705e-06 -0.000146035 8.4177e-05 -9.95483e-05 -0.000146035 -0.000291255 -1.18705e-06 -0.000146035 -0.000504995 -0.000494412 -0.000146035 -0.000291255 -0.000494412 -0.000443861 -9.95483e-05 -0.000296033 -0.000291255 -0.000446797 -0.000296033 -0.000515754 -0.000446797 -0.000641562 -0.000291255 -0.000446797 -0.000443861 -0.00039283 -0.000446797 -0.000641562 -0.00039283 -0.000404633 0 0 -0.000264894 -0.000417952 0 0 -0.000417952 -0.000590075 -0.000264894 -0.000417952 -0.000515754 -0.000774841 -0.000417952 -0.000590075 -0.000774841 -0.00107962 0 0 -0.000590075 -0.000769542 0 0 -0.000769542 -0.00092263 -0.000590075 -0.000769542 -0.00107962 -0.00140686 -0.000769542 -0.00092263 -0.00140686 -0.00168829 -0.000515754 -0.000774841 -0.000641562 -0.000910046 -0.000774841 -0.00107962 -0.000910046 -0.00126736 -0.000641562 -0.000910046 -0.000404633 -0.000544013 -0.000910046 -0.00126736 -0.000544013 -0.000840871 -0.00107962 -0.00140686 -0.00126736 -0.00167939 -0.00140686 -0.00168829 -0.00167939 -0.00204208 -0.00126736 -0.00167939 -0.000840871 -0.00125066 -0.00167939 -0.00204208 -0.00125066 -0.00163153 0 0 -0.00092263 -0.000992744 0 0 -0.000992744 -0.00091193 -0.00092263 -0.000992744 -0.00168829 -0.00181128 -0.000992744 -0.00091193 -0.00181128 -0.00164542 0 0 -0.00091193 -0.000625986 0 0 -0.000625986 -0.000127524 -0.00091193 -0.000625986 -0.00164542 -0.00109666 -0.000625986 -0.000127524 -0.00109666 -0.000175399 -0.00168829 -0.00181128 -0.00204208 -0.00218806 -0.00181128 -0.00164542 -0.00218806 -0.00193522 -0.00204208 -0.00218806 -0.00163153 -0.00176352 -0.00218806 -0.00193522 -0.00176352 -0.00142825 -0.00164542 -0.00109666 -0.00193522 -0.00117688 -0.00109666 -0.000175399 -0.00117688 1.21738e-05 -0.00193522 -0.00117688 -0.00142825 -0.000544104 -0.00117688 1.21738e-05 -0.000544104 0.000687733 0 0 -0.000127524 0.000516083 0 0 0.000516083 0.00115661 -0.000127524 0.000516083 -0.000175399 0.000950791 0.000516083 0.00115661 0.000950791 0.00195586 0 0 0.00115661 0.00159291 0 0 0.00159291 0.00163145 0.00115661 0.00159291 0.00195586 0.00242889 0.00159291 0.00163145 0.00242889 0.00201191 -0.000175399 0.000950791 1.21738e-05 0.00130613 0.000950791 0.00195586 0.00130613 0.0021566 1.21738e-05 0.00130613 0.000687733 0.00171214 0.00130613 0.0021566 0.00171214 0.00172182 0.00195586 0.00242889 0.0021566 0.00195233 0.00242889 0.00201191 0.00195233 0.00027212 0.0021566 0.00195233 0.00172182 -2.35476e-05 0.00195233 0.00027212 -2.35476e-05 -0.00375409 0 0 0.00163145 0.00116033 0 0 0.00116033 0.000206112 0.00163145 0.00116033 0.00201191 0.000550805 0.00116033 0.000206112 0.000550805 -0.00181135 0 0 0.000206112 -0.00105387 0 0 -0.00105387 -0.00233353 0.000206112 -0.00105387 -0.00181135 -0.00464817 -0.00105387 -0.00233353 -0.00464817 -0.00736732 0.00201191 0.000550805 0.00027212 -0.00288791 0.000550805 -0.00181135 -0.00288791 -0.00705345 0.00027212 -0.00288791 -0.00375409 -0.00888669 -0.00288791 -0.00705345 -0.00888669 -0.0141646 -0.00181135 -0.00464817 -0.00705345 -0.0114332 -0.00464817 -0.00736732 -0.0114332 -0.0152089 -0.00705345 -0.0114332 -0.0141646 -0.0182855 -0.0114332 -0.0152089 -0.0182855 -0.0206331 0 0 -0.00233353 -0.00332102 0 0 -0.00332102 -0.003773 -0.00233353 -0.00332102 -0.00736732 -0.00937901 -0.00332102 -0.003773 -0.00937901 -0.010251 0 0 -0.003773 -0.00358798 0 0 -0.00358798 -0.00283528 -0.003773 -0.00358798 -0.010251 -0.00980978 -0.00358798 -0.00283528 -0.00980978 -0.00817701 -0.00736732 -0.00937901 -0.0152089 -0.0177719 -0.00937901 -0.010251 -0.0177719 -0.0187909 -0.0152089 -0.0177719 -0.0206331 -0.0215197 -0.0177719 -0.0187909 -0.0215197 -0.0216963 -0.010251 -0.00980978 -0.0187909 -0.018154 -0.00980978 -0.00817701 -0.018154 -0.015927 -0.0187909 -0.018154 -0.0216963 -0.0215429 -0.018154 -0.015927 -0.0215429 -0.0206762 0 0 -0.00283528 -0.00173106 0 0 -0.00173106 -0.000568899 -0.00283528 -0.00173106 -0.00817701 -0.00574148 -0.00173106 -0.000568899 -0.00574148 -0.00306451 0 0 -0.000568899 0.000372239 0 0 0.000372239 0.000910705 -0.000568899 0.000372239 -0.00306451 -0.000728416 0.000372239 0.000910705 -0.000728416 0.000831994 -0.00817701 -0.00574148 -0.015927 -0.0124036 -0.00574148 -0.00306451 -0.0124036 -0.00816955 -0.015927 -0.0124036 -0.0206762 -0.0183452 -0.0124036 -0.00816955 -0.0183452 -0.0142424 -0.00306451 -0.000728416 -0.00816955 -0.00403825 -0.000728416 0.000831994 -0.00403825 -0.000812302 -0.00816955 -0.00403825 -0.0142424 -0.00899347 -0.00403825 -0.000812302 -0.00899347 -0.00391124 0 0 0.000910705 0.00100575 0 0 0.00100575 0.00074803 0.000910705 0.00100575 0.000831994 0.00144985 0.00100575 0.00074803 0.00144985 0.00124501 0 0 0.00074803 0.000306025 0 0 0.000306025 -0.000144743 0.00074803 0.000306025 0.00124501 0.000536365 0.000306025 -0.000144743 0.000536365 -0.000304106 0.000831994 0.00144985 -0.000812302 0.00101028 0.00144985 0.00124501 0.00101028 0.00140309 -0.000812302 0.00101028 -0.00391124 -0.000260295 0.00101028 0.00140309 -0.000260295 0.00137445 0.00124501 0.000536365 0.00140309 0.000755826 0.000536365 -0.000304106 0.000755826 -0.000348729 0.00140309 0.000755826 0.00137445 0.00122901 0.000755826 -0.000348729 0.00122901 5.66623e-05 0 0 -0.000144743 -0.000479514 0 0 -0.000479514 -0.000650178 -0.000144743 -0.000479514 -0.000304106 -0.000985193 -0.000479514 -0.000650178 -0.000985193 -0.00136738 0 0 -0.000650178 -0.000677723 0 0 -0.000677723 -0.000623316 -0.000650178 -0.000677723 -0.00136738 -0.00145991 -0.000677723 -0.000623316 -0.00145991 -0.00136696 -0.000304106 -0.000985193 -0.000348729 -0.00138538 -0.000985193 -0.00136738 -0.00138538 -0.00204546 -0.000348729 -0.00138538 5.66623e-05 -0.00131783 -0.00138538 -0.00204546 -0.00131783 -0.00232113 -0.00136738 -0.00145991 -0.00204546 -0.00226552 -0.00145991 -0.00136696 -0.00226552 -0.00215814 -0.00204546 -0.00226552 -0.00232113 -0.0027372 -0.00226552 -0.00215814 -0.0027372 -0.00263955 0 0 -0.000623316 -0.000554685 0 0 -0.000554685 -0.000520921 -0.000623316 -0.000554685 -0.00136696 -0.00121888 -0.000554685 -0.000520921 -0.00121888 -0.00111786 0 0 -0.000520921 -0.000541471 0 0 -0.000541471 -0.000608268 -0.000520921 -0.000541471 -0.00111786 -0.0011117 -0.000541471 -0.000608268 -0.0011117 -0.00119464 -0.00136696 -0.00121888 -0.00215814 -0.00190604 -0.00121888 -0.00111786 -0.00190604 -0.00167149 -0.00215814 -0.00190604 -0.00263955 -0.00224728 -0.00190604 -0.00167149 -0.00224728 -0.00179004 -0.00111786 -0.0011117 -0.00167149 -0.00154718 -0.0011117 -0.00119464 -0.00154718 -0.00154947 -0.00167149 -0.00154718 -0.00179004 -0.00142634 -0.00154718 -0.00154947 -0.00142634 -0.00122088 0 0 -0.000608268 -0.000695974 0 0 -0.000695974 -0.000774468 -0.000608268 -0.000695974 -0.00119464 -0.00132551 -0.000695974 -0.000774468 -0.00132551 -0.00145131 0 0 -0.000774468 -0.000819108 0 0 -0.000819108 -0.000816478 -0.000774468 -0.000819108 -0.00145131 -0.00152701 -0.000819108 -0.000816478 -0.00152701 -0.00152689 -0.00119464 -0.00132551 -0.00154947 -0.0016398 -0.00132551 -0.00145131 -0.0016398 -0.00175645 -0.00154947 -0.0016398 -0.00122088 -0.00116303 -0.0016398 -0.00175645 -0.00116303 -0.00120228 -0.00145131 -0.00152701 -0.00175645 -0.00184235 -0.00152701 -0.00152689 -0.00184235 -0.00186158 -0.00175645 -0.00184235 -0.00120228 -0.00128125 -0.00184235 -0.00186158 -0.00128125 -0.00135636 0 0 -0.000816478 -0.000765441 0 0 -0.000765441 -0.000674686 -0.000816478 -0.000765441 -0.00152689 -0.00144695 -0.000765441 -0.000674686 -0.00144695 -0.00130057 0 0 -0.000674686 -0.000558534 0 0 -0.000558534 -0.000432659 -0.000674686 -0.000558534 -0.00130057 -0.00111089 -0.000558534 -0.000432659 -0.00111089 -0.000903224 -0.00152689 -0.00144695 -0.00186158 -0.00180353 -0.00144695 -0.00130057 -0.00180353 -0.00167796 -0.00186158 -0.00180353 -0.00135636 -0.0014044 -0.00180353 -0.00167796 -0.0014044 -0.00141896 -0.00130057 -0.00111089 -0.00167796 -0.00150576 -0.00111089 -0.000903224 -0.00150576 -0.00130978 -0.00167796 -0.00150576 -0.00141896 -0.00140234 -0.00150576 -0.00130978 -0.00140234 -0.00135814 0 0 -0.000432659 -0.00031089 0 0 -0.00031089 -0.000203561 -0.000432659 -0.00031089 -0.000903224 -0.000699504 -0.00031089 -0.000203561 -0.000699504 -0.000515792 0 0 -0.000203561 -0.000117298 0 0 -0.000117298 -5.56769e-05 -0.000203561 -0.000117298 -0.000515792 -0.000362388 -0.000117298 -5.56769e-05 -0.000362388 -0.000245425 -0.000903224 -0.000699504 -0.00130978 -0.00110894 -0.000699504 -0.000515792 -0.00110894 -0.000916237 -0.00130978 -0.00110894 -0.00135814 -0.00128742 -0.00110894 -0.000916237 -0.00128742 -0.00118919 -0.000515792 -0.000362388 -0.000916237 -0.000740158 -0.000362388 -0.000245425 -0.000740158 -0.000587496 -0.000916237 -0.000740158 -0.00118919 -0.0010638 -0.000740158 -0.000587496 -0.0010638 -0.000916827 0 0 -5.56769e-05 -2.01008e-05 0 0 -2.01008e-05 -1.03544e-05 -5.56769e-05 -2.01008e-05 -0.000245425 -0.000168546 -2.01008e-05 -1.03544e-05 -0.000168546 -0.000133673 0 0 -1.03544e-05 -2.46349e-05 0 0 -2.46349e-05 -5.92149e-05 -1.03544e-05 -2.46349e-05 -0.000133673 -0.000140531 -2.46349e-05 -5.92149e-05 -0.000140531 -0.000185384 -0.000245425 -0.000168546 -0.000587496 -0.000465563 -0.000168546 -0.000133673 -0.000465563 -0.000382442 -0.000587496 -0.000465563 -0.000916827 -0.000760849 -0.000465563 -0.000382442 -0.000760849 -0.000614106 -0.000133673 -0.000140531 -0.000382442 -0.000345079 -0.000140531 -0.000185384 -0.000345079 -0.00035616 -0.000382442 -0.000345079 -0.000614106 -0.000496139 -0.000345079 -0.00035616 -0.000496139 -0.000422299 0 0 -5.92149e-05 -0.000108138 0 0 -0.000108138 -0.000163384 -5.92149e-05 -0.000108138 -0.000185384 -0.000259885 -0.000108138 -0.000163384 -0.000259885 -0.000351001 0 0 -0.000163384 -0.000215754 0 0 -0.000215754 -0.000256428 -0.000163384 -0.000215754 -0.000351001 -0.000442535 -0.000215754 -0.000256428 -0.000442535 -0.000518085 -0.000185384 -0.000259885 -0.00035616 -0.000411379 -0.000259885 -0.000351001 -0.000411379 -0.000498582 -0.00035616 -0.000411379 -0.000422299 -0.000399329 -0.000411379 -0.000498582 -0.000399329 -0.000423749 -0.000351001 -0.000442535 -0.000498582 -0.000599476 -0.000442535 -0.000518085 -0.000599476 -0.000693565 -0.000498582 -0.000599476 -0.000423749 -0.000483426 -0.000599476 -0.000693565 -0.000483426 -0.000561454 0 0 -0.000256428 -0.000278801 0 0 -0.000278801 -0.000280076 -0.000256428 -0.000278801 -0.000518085 -0.000564677 -0.000278801 -0.000280076 -0.000564677 -0.000575966 0 0 -0.000280076 -0.000262068 0 0 -0.000262068 -0.000230948 -0.000280076 -0.000262068 -0.000575966 -0.000553982 -0.000262068 -0.000230948 -0.000553982 -0.000508848 -0.000518085 -0.000564677 -0.000693565 -0.000763116 -0.000564677 -0.000575966 -0.000763116 -0.000797604 -0.000693565 -0.000763116 -0.000561454 -0.000640788 -0.000763116 -0.000797604 -0.000640788 -0.000708217 -0.000575966 -0.000553982 -0.000797604 -0.000796343 -0.000553982 -0.000508848 -0.000796343 -0.000768602 -0.000797604 -0.000796343 -0.000708217 -0.000756885 -0.000796343 -0.000768602 -0.000756885 -0.00078723 0 0 -0.000230948 -0.00019593 0 0 -0.00019593 -0.000167275 -0.000230948 -0.00019593 -0.000508848 -0.000456503 -0.00019593 -0.000167275 -0.000456503 -0.000415062 0 0 -0.000167275 -0.000154126 0 0 -0.000154126 -0.000162756 -0.000167275 -0.000154126 -0.000415062 -0.000400788 -0.000154126 -0.000162756 -0.000400788 -0.000424726 -0.000508848 -0.000456503 -0.000768602 -0.000731251 -0.000456503 -0.000415062 -0.000731251 -0.000704599 -0.000768602 -0.000731251 -0.00078723 -0.000806433 -0.000731251 -0.000704599 -0.000806433 -0.000826486 -0.000415062 -0.000400788 -0.000704599 -0.000707481 -0.000400788 -0.000424726 -0.000707481 -0.000752808 -0.000704599 -0.000707481 -0.000826486 -0.000860942 -0.000707481 -0.000752808 -0.000860942 -0.000920767 0 0 -0.000162756 -0.000195609 0 0 -0.000195609 -0.000251265 -0.000162756 -0.000195609 -0.000424726 -0.000490788 -0.000195609 -0.000251265 -0.000490788 -0.000595612 0 0 -0.000251265 -0.000325186 0 0 -0.000325186 -0.000410879 -0.000251265 -0.000325186 -0.000595612 -0.000730002 -0.000325186 -0.000410879 -0.000730002 -0.000881313 -0.000424726 -0.000490788 -0.000752808 -0.000844663 -0.000490788 -0.000595612 -0.000844663 -0.000977652 -0.000752808 -0.000844663 -0.000920767 -0.00101027 -0.000844663 -0.000977652 -0.00101027 -0.00112459 -0.000595612 -0.000730002 -0.000977652 -0.00113859 -0.000730002 -0.000881313 -0.00113859 -0.00130997 -0.000977652 -0.00113859 -0.00112459 -0.00124994 -0.00113859 -0.00130997 -0.00124994 -0.00136717 0 0 -0.000410879 -0.00050108 0 0 -0.00050108 -0.000588642 -0.000410879 -0.00050108 -0.000881313 -0.00103598 -0.00050108 -0.000588642 -0.00103598 -0.00118148 0 0 -0.000588642 -0.000667003 0 0 -0.000667003 -0.000730321 -0.000588642 -0.000667003 -0.00118148 -0.00130728 -0.000667003 -0.000730321 -0.00130728 -0.00140495 -0.000881313 -0.00103598 -0.00130997 -0.00147404 -0.00103598 -0.00118148 -0.00147404 -0.00161625 -0.00130997 -0.00147404 -0.00136717 -0.00145747 -0.00147404 -0.00161625 -0.00145747 -0.00150821 -0.00118148 -0.00130728 -0.00161625 -0.00172703 -0.00130728 -0.00140495 -0.00172703 -0.00180166 -0.00161625 -0.00172703 -0.00150821 -0.00151657 -0.00172703 -0.00180166 -0.00151657 -0.00148959 0 0 -0.000730321 -0.000773482 0 0 -0.000773482 -0.000792219 -0.000730321 -0.000773482 -0.00140495 -0.00146777 -0.000773482 -0.000792219 -0.00146777 -0.00149033 0 0 -0.000792219 -0.000783475 0 0 -0.000783475 -0.000745962 -0.000792219 -0.000783475 -0.00149033 -0.00146872 -0.000783475 -0.000745962 -0.00146872 -0.00140115 -0.00140495 -0.00146777 -0.00180166 -0.00183871 -0.00146777 -0.00149033 -0.00183871 -0.00183798 -0.00180166 -0.00183871 -0.00148959 -0.00144055 -0.00183871 -0.00183798 -0.00144055 -0.00138364 -0.00149033 -0.00146872 -0.00183798 -0.00179919 -0.00146872 -0.00140115 -0.00179919 -0.0017218 -0.00183798 -0.00179919 -0.00138364 -0.00132895 -0.00179919 -0.0017218 -0.00132895 -0.00127988 0 0 -0.000745962 -0.000680778 0 0 -0.000680778 -0.000591793 -0.000745962 -0.000680778 -0.00140115 -0.00128909 -0.000680778 -0.000591793 -0.00128909 -0.00113804 0 0 -0.000591793 -0.000485619 0 0 -0.000485619 -0.000371035 -0.000591793 -0.000485619 -0.00113804 -0.000957925 -0.000485619 -0.000371035 -0.000957925 -0.000762294 -0.00140115 -0.00128909 -0.0017218 -0.00160609 -0.00128909 -0.00113804 -0.00160609 -0.00145483 -0.0017218 -0.00160609 -0.00127988 -0.00123359 -0.00160609 -0.00145483 -0.00123359 -0.00118371 -0.00113804 -0.000957925 -0.00145483 -0.00127448 -0.000957925 -0.000762294 -0.00127448 -0.0010754 -0.00145483 -0.00127448 -0.00118371 -0.00112382 -0.00127448 -0.0010754 -0.00112382 -0.00104983 0 0 -0.000371035 -0.000257938 0 0 -0.000257938 -0.000155971 -0.000371035 -0.000257938 -0.000762294 -0.000566785 -0.000257938 -0.000155971 -0.000566785 -0.000386857 0 0 -0.000155971 -7.31272e-05 0 0 -7.31272e-05 -1.456e-05 -0.000155971 -7.31272e-05 