# vtk DataFile Version 3.0
#This file was generated by the deal.II library on 2012/5/30 at 14: 8:22
ASCII
DATASET UNSTRUCTURED_GRID

POINTS 23040 double
0 0 0
0.25 0 0
0 0.25 0
0.25 0.25 0
0.25 0 0
0.5 0 0
0.25 0.25 0
0.5 0.25 0
0 0.25 0
0.25 0.25 0
0 0.5 0
0.25 0.5 0
0.25 0.25 0
0.5 0.25 0
0.25 0.5 0
0.5 0.5 0
0.5 0 0
0.75 0 0
0.5 0.25 0
0.75 0.25 0
0.75 0 0
1 0 0
0.75 0.25 0
1 0.25 0
0.5 0.25 0
0.75 0.25 0
0.5 0.5 0
0.75 0.5 0
0.75 0.25 0
1 0.25 0
0.75 0.5 0
1 0.5 0
0 0.5 0
0.25 0.5 0
0 0.75 0
0.25 0.75 0
0.25 0.5 0
0.5 0.5 0
0.25 0.75 0
0.5 0.75 0
0 0.75 0
0.25 0.75 0
0 1 0
0.25 1 0
0.25 0.75 0
0.5 0.75 0
0.25 1 0
0.5 1 0
0.5 0.5 0
0.75 0.5 0
0.5 0.75 0
0.75 0.75 0
0.75 0.5 0
1 0.5 0
0.75 0.75 0
1 0.75 0
0.5 0.75 0
0.75 0.75 0
0.5 1 0
0.75 1 0
0.75 0.75 0
1 0.75 0
0.75 1 0
1 1 0
1 0 0
1.25 0 0
1 0.25 0
1.25 0.25 0
1.25 0 0
1.5 0 0
1.25 0.25 0
1.5 0.25 0
1 0.25 0
1.25 0.25 0
1 0.5 0
1.25 0.5 0
1.25 0.25 0
1.5 0.25 0
1.25 0.5 0
1.5 0.5 0
1.5 0 0
1.75 0 0
1.5 0.25 0
1.75 0.25 0
1.75 0 0
2 0 0
1.75 0.25 0
2 0.25 0
1.5 0.25 0
1.75 0.25 0
1.5 0.5 0
1.75 0.5 0
1.75 0.25 0
2 0.25 0
1.75 0.5 0
2 0.5 0
1 0.5 0
1.25 0.5 0
1 0.75 0
1.25 0.75 0
1.25 0.5 0
1.5 0.5 0
1.25 0.75 0
1.5 0.75 0
1 0.75 0
1.25 0.75 0
1 1 0
1.25 1 0
1.25 0.75 0
1.5 0.75 0
1.25 1 0
1.5 1 0
1.5 0.5 0
1.75 0.5 0
1.5 0.75 0
1.75 0.75 0
1.75 0.5 0
2 0.5 0
1.75 0.75 0
2 0.75 0
1.5 0.75 0
1.75 0.75 0
1.5 1 0
1.75 1 0
1.75 0.75 0
2 0.75 0
1.75 1 0
2 1 0
2 0 0
2.25 0 0
2 0.25 0
2.25 0.25 0
2.25 0 0
2.5 0 0
2.25 0.25 0
2.5 0.25 0
2 0.25 0
2.25 0.25 0
2 0.5 0
2.25 0.5 0
2.25 0.25 0
2.5 0.25 0
2.25 0.5 0
2.5 0.5 0
2.5 0 0
2.75 0 0
2.5 0.25 0
2.75 0.25 0
2.75 0 0
3 0 0
2.75 0.25 0
3 0.25 0
2.5 0.25 0
2.75 0.25 0
2.5 0.5 0
2.75 0.5 0
2.75 0.25 0
3 0.25 0
2.75 0.5 0
3 0.5 0
2 0.5 0
2.25 0.5 0
2 0.75 0
2.25 0.75 0
2.25 0.5 0
2.5 0.5 0
2.25 0.75 0
2.5 0.75 0
2 0.75 0
2.25 0.75 0
2 1 0
2.25 1 0
2.25 0.75 0
2.5 0.75 0
2.25 1 0
2.5 1 0
2.5 0.5 0
2.75 0.5 0
2.5 0.75 0
2.75 0.75 0
2.75 0.5 0
3 0.5 0
2.75 0.75 0
3 0.75 0
2.5 0.75 0
2.75 0.75 0
2.5 1 0
2.75 1 0
2.75 0.75 0
3 0.75 0
2.75 1 0
3 1 0
3 0 0
3.25 0 0
3 0.25 0
3.25 0.25 0
3.25 0 0
3.5 0 0
3.25 0.25 0
3.5 0.25 0
3 0.25 0
3.25 0.25 0
3 0.5 0
3.25 0.5 0
3.25 0.25 0
3.5 0.25 0
3.25 0.5 0
3.5 0.5 0
3.5 0 0
3.75 0 0
3.5 0.25 0
3.75 0.25 0
3.75 0 0
4 0 0
3.75 0.25 0
4 0.25 0
3.5 0.25 0
3.75 0.25 0
3.5 0.5 0
3.75 0.5 0
3.75 0.25 0
4 0.25 0
3.75 0.5 0
4 0.5 0
3 0.5 0
3.25 0.5 0
3 0.75 0
3.25 0.75 0
3.25 0.5 0
3.5 0.5 0
3.25 0.75 0
3.5 0.75 0
3 0.75 0
3.25 0.75 0
3 1 0
3.25 1 0
3.25 0.75 0
3.5 0.75 0
3.25 1 0
3.5 1 0
3.5 0.5 0
3.75 0.5 0
3.5 0.75 0
3.75 0.75 0
3.75 0.5 0
4 0.5 0
3.75 0.75 0
4 0.75 0
3.5 0.75 0
3.75 0.75 0
3.5 1 0
3.75 1 0
3.75 0.75 0
4 0.75 0
3.75 1 0
4 1 0
4 0 0
4.25 0 0
4 0.25 0
4.25 0.25 0
4.25 0 0
4.5 0 0
4.25 0.25 0
4.5 0.25 0
4 0.25 0
4.25 0.25 0
4 0.5 0
4.25 0.5 0
4.25 0.25 0
4.5 0.25 0
4.25 0.5 0
4.5 0.5 0
4.5 0 0
4.75 0 0
4.5 0.25 0
4.75 0.25 0
4.75 0 0
5 0 0
4.75 0.25 0
5 0.25 0
4.5 0.25 0
4.75 0.25 0
4.5 0.5 0
4.75 0.5 0
4.75 0.25 0
5 0.25 0
4.75 0.5 0
5 0.5 0
4 0.5 0
4.25 0.5 0
4 0.75 0
4.25 0.75 0
4.25 0.5 0
4.5 0.5 0
4.25 0.75 0
4.5 0.75 0
4 0.75 0
4.25 0.75 0
4 1 0
4.25 1 0
4.25 0.75 0
4.5 0.75 0
4.25 1 0
4.5 1 0
4.5 0.5 0
4.75 0.5 0
4.5 0.75 0
4.75 0.75 0
4.75 0.5 0
5 0.5 0
4.75 0.75 0
5 0.75 0
4.5 0.75 0
4.75 0.75 0
4.5 1 0
4.75 1 0
4.75 0.75 0
5 0.75 0
4.75 1 0
5 1 0
5 0 0
5.25 0 0
5 0.25 0
5.25 0.25 0
5.25 0 0
5.5 0 0
5.25 0.25 0
5.5 0.25 0
5 0.25 0
5.25 0.25 0
5 0.5 0
5.25 0.5 0
5.25 0.25 0
5.5 0.25 0
5.25 0.5 0
5.5 0.5 0
5.5 0 0
5.75 0 0
5.5 0.25 0
5.75 0.25 0
5.75 0 0
6 0 0
5.75 0.25 0
6 0.25 0
5.5 0.25 0
5.75 0.25 0
5.5 0.5 0
5.75 0.5 0
5.75 0.25 0
6 0.25 0
5.75 0.5 0
6 0.5 0
5 0.5 0
5.25 0.5 0
5 0.75 0
5.25 0.75 0
5.25 0.5 0
5.5 0.5 0
5.25 0.75 0
5.5 0.75 0
5 0.75 0
5.25 0.75 0
5 1 0
5.25 1 0
5.25 0.75 0
5.5 0.75 0
5.25 1 0
5.5 1 0
5.5 0.5 0
5.75 0.5 0
5.5 0.75 0
5.75 0.75 0
5.75 0.5 0
6 0.5 0
5.75 0.75 0
6 0.75 0
5.5 0.75 0
5.75 0.75 0
5.5 1 0
5.75 1 0
5.75 0.75 0
6 0.75 0
5.75 1 0
6 1 0
6 0 0
6.25 0 0
6 0.25 0
6.25 0.25 0
6.25 0 0
6.5 0 0
6.25 0.25 0
6.5 0.25 0
6 0.25 0
6.25 0.25 0
6 0.5 0
6.25 0.5 0
6.25 0.25 0
6.5 0.25 0
6.25 0.5 0
6.5 0.5 0
6.5 0 0
6.75 0 0
6.5 0.25 0
6.75 0.25 0
6.75 0 0
7 0 0
6.75 0.25 0
7 0.25 0
6.5 0.25 0
6.75 0.25 0
6.5 0.5 0
6.75 0.5 0
6.75 0.25 0
7 0.25 0
6.75 0.5 0
7 0.5 0
6 0.5 0
6.25 0.5 0
6 0.75 0
6.25 0.75 0
6.25 0.5 0
6.5 0.5 0
6.25 0.75 0
6.5 0.75 0
6 0.75 0
6.25 0.75 0
6 1 0
6.25 1 0
6.25 0.75 0
6.5 0.75 0
6.25 1 0
6.5 1 0
6.5 0.5 0
6.75 0.5 0
6.5 0.75 0
6.75 0.75 0
6.75 0.5 0
7 0.5 0
6.75 0.75 0
7 0.75 0
6.5 0.75 0
6.75 0.75 0
6.5 1 0
6.75 1 0
6.75 0.75 0
7 0.75 0
6.75 1 0
7 1 0
7 0 0
7.25 0 0
7 0.25 0
7.25 0.25 0
7.25 0 0
7.5 0 0
7.25 0.25 0
7.5 0.25 0
7 0.25 0
7.25 0.25 0
7 0.5 0
7.25 0.5 0
7.25 0.25 0
7.5 0.25 0
7.25 0.5 0
7.5 0.5 0
7.5 0 0
7.75 0 0
7.5 0.25 0
7.75 0.25 0
7.75 0 0
8 0 0
7.75 0.25 0
8 0.25 0
7.5 0.25 0
7.75 0.25 0
7.5 0.5 0
7.75 0.5 0
7.75 0.25 0
8 0.25 0
7.75 0.5 0
8 0.5 0
7 0.5 0
7.25 0.5 0
7 0.75 0
7.25 0.75 0
7.25 0.5 0
7.5 0.5 0
7.25 0.75 0
7.5 0.75 0
7 0.75 0
7.25 0.75 0
7 1 0
7.25 1 0
7.25 0.75 0
7.5 0.75 0
7.25 1 0
7.5 1 0
7.5 0.5 0
7.75 0.5 0
7.5 0.75 0
7.75 0.75 0
7.75 0.5 0
8 0.5 0
7.75 0.75 0
8 0.75 0
7.5 0.75 0
7.75 0.75 0
7.5 1 0
7.75 1 0
7.75 0.75 0
8 0.75 0
7.75 1 0
8 1 0
8 0 0
8.25 0 0
8 0.25 0
8.25 0.25 0
8.25 0 0
8.5 0 0
8.25 0.25 0
8.5 0.25 0
8 0.25 0
8.25 0.25 0
8 0.5 0
8.25 0.5 0
8.25 0.25 0
8.5 0.25 0
8.25 0.5 0
8.5 0.5 0
8.5 0 0
8.75 0 0
8.5 0.25 0
8.75 0.25 0
8.75 0 0
9 0 0
8.75 0.25 0
9 0.25 0
8.5 0.25 0
8.75 0.25 0
8.5 0.5 0
8.75 0.5 0
8.75 0.25 0
9 0.25 0
8.75 0.5 0
9 0.5 0
8 0.5 0
8.25 0.5 0
8 0.75 0
8.25 0.75 0
8.25 0.5 0
8.5 0.5 0
8.25 0.75 0
8.5 0.75 0
8 0.75 0
8.25 0.75 0
8 1 0
8.25 1 0
8.25 0.75 0
8.5 0.75 0
8.25 1 0
8.5 1 0
8.5 0.5 0
8.75 0.5 0
8.5 0.75 0
8.75 0.75 0
8.75 0.5 0
9 0.5 0
8.75 0.75 0
9 0.75 0
8.5 0.75 0
8.75 0.75 0
8.5 1 0
8.75 1 0
8.75 0.75 0
9 0.75 0
8.75 1 0
9 1 0
9 0 0
9.25 0 0
9 0.25 0
9.25 0.25 0
9.25 0 0
9.5 0 0
9.25 0.25 0
9.5 0.25 0
9 0.25 0
9.25 0.25 0
9 0.5 0
9.25 0.5 0
9.25 0.25 0
9.5 0.25 0
9.25 0.5 0
9.5 0.5 0
9.5 0 0
9.75 0 0
9.5 0.25 0
9.75 0.25 0
9.75 0 0
10 0 0
9.75 0.25 0
10 0.25 0
9.5 0.25 0
9.75 0.25 0
9.5 0.5 0
9.75 0.5 0
9.75 0.25 0
10 0.25 0
9.75 0.5 0
10 0.5 0
9 0.5 0
9.25 0.5 0
9 0.75 0
9.25 0.75 0
9.25 0.5 0
9.5 0.5 0
9.25 0.75 0
9.5 0.75 0
9 0.75 0
9.25 0.75 0
9 1 0
9.25 1 0
9.25 0.75 0
9.5 0.75 0
9.25 1 0
9.5 1 0
9.5 0.5 0
9.75 0.5 0
9.5 0.75 0
9.75 0.75 0
9.75 0.5 0
10 0.5 0
9.75 0.75 0
10 0.75 0
9.5 0.75 0
9.75 0.75 0
9.5 1 0
9.75 1 0
9.75 0.75 0
10 0.75 0
9.75 1 0
10 1 0
10 0 0
10.25 0 0
10 0.25 0
10.25 0.25 0
10.25 0 0
10.5 0 0
10.25 0.25 0
10.5 0.25 0
10 0.25 0
10.25 0.25 0
10 0.5 0
10.25 0.5 0
10.25 0.25 0
10.5 0.25 0
10.25 0.5 0
10.5 0.5 0
10.5 0 0
10.75 0 0
10.5 0.25 0
10.75 0.25 0
10.75 0 0
11 0 0
10.75 0.25 0
11 0.25 0
10.5 0.25 0
10.75 0.25 0
10.5 0.5 0
10.75 0.5 0
10.75 0.25 0
11 0.25 0
10.75 0.5 0
11 0.5 0
10 0.5 0
10.25 0.5 0
10 0.75 0
10.25 0.75 0
10.25 0.5 0
10.5 0.5 0
10.25 0.75 0
10.5 0.75 0
10 0.75 0
10.25 0.75 0
10 1 0
10.25 1 0
10.25 0.75 0
10.5 0.75 0
10.25 1 0
10.5 1 0
10.5 0.5 0
10.75 0.5 0
10.5 0.75 0
10.75 0.75 0
10.75 0.5 0
11 0.5 0
10.75 0.75 0
11 0.75 0
10.5 0.75 0
10.75 0.75 0
10.5 1 0
10.75 1 0
10.75 0.75 0
11 0.75 0
10.75 1 0
11 1 0
11 0 0
11.25 0 0
11 0.25 0
11.25 0.25 0
11.25 0 0
11.5 0 0
11.25 0.25 0
11.5 0.25 0
11 0.25 0
11.25 0.25 0
11 0.5 0
11.25 0.5 0
11.25 0.25 0
11.5 0.25 0
11.25 0.5 0
11.5 0.5 0
11.5 0 0
11.75 0 0
11.5 0.25 0
11.75 0.25 0
11.75 0 0
12 0 0
11.75 0.25 0
12 0.25 0
11.5 0.25 0
11.75 0.25 0
11.5 0.5 0
11.75 0.5 0
11.75 0.25 0
12 0.25 0
11.75 0.5 0
12 0.5 0
11 0.5 0
11.25 0.5 0
11 0.75 0
11.25 0.75 0
11.25 0.5 0
11.5 0.5 0
11.25 0.75 0
11.5 0.75 0
11 0.75 0
11.25 0.75 0
11 1 0
11.25 1 0
11.25 0.75 0
11.5 0.75 0
11.25 1 0
11.5 1 0
11.5 0.5 0
11.75 0.5 0
11.5 0.75 0
11.75 0.75 0
11.75 0.5 0
12 0.5 0
11.75 0.75 0
12 0.75 0
11.5 0.75 0
11.75 0.75 0
11.5 1 0
11.75 1 0
11.75 0.75 0
12 0.75 0
11.75 1 0
12 1 0
12 0 0
12.25 0 0
12 0.25 0
12.25 0.25 0
12.25 0 0
12.5 0 0
12.25 0.25 0
12.5 0.25 0
12 0.25 0
12.25 0.25 0
12 0.5 0
12.25 0.5 0
12.25 0.25 0
12.5 0.25 0
12.25 0.5 0
12.5 0.5 0
12.5 0 0
12.75 0 0
12.5 0.25 0
12.75 0.25 0
12.75 0 0
13 0 0
12.75 0.25 0
13 0.25 0
12.5 0.25 0
12.75 0.25 0
12.5 0.5 0
12.75 0.5 0
12.75 0.25 0
13 0.25 0
12.75 0.5 0
13 0.5 0
12 0.5 0
12.25 0.5 0
12 0.75 0
12.25 0.75 0
12.25 0.5 0
12.5 0.5 0
12.25 0.75 0
12.5 0.75 0
12 0.75 0
12.25 0.75 0
12 1 0
12.25 1 0
12.25 0.75 0
12.5 0.75 0
12.25 1 0
12.5 1 0
12.5 0.5 0
12.75 0.5 0
12.5 0.75 0
12.75 0.75 0
12.75 0.5 0
13 0.5 0
12.75 0.75 0
13 0.75 0
12.5 0.75 0
12.75 0.75 0
12.5 1 0
12.75 1 0
12.75 0.75 0
13 0.75 0
12.75 1 0
13 1 0
13 0 0
13.25 0 0
13 0.25 0
13.25 0.25 0
13.25 0 0
13.5 0 0
13.25 0.25 0
13.5 0.25 0
13 0.25 0
13.25 0.25 0
13 0.5 0
13.25 0.5 0
13.25 0.25 0
13.5 0.25 0
13.25 0.5 0
13.5 0.5 0
13.5 0 0
13.75 0 0
13.5 0.25 0
13.75 0.25 0
13.75 0 0
14 0 0
13.75 0.25 0
14 0.25 0
13.5 0.25 0
13.75 0.25 0
13.5 0.5 0
13.75 0.5 0
13.75 0.25 0
14 0.25 0
13.75 0.5 0
14 0.5 0
13 0.5 0
13.25 0.5 0
13 0.75 0
13.25 0.75 0
13.25 0.5 0
13.5 0.5 0
13.25 0.75 0
13.5 0.75 0
13 0.75 0
13.25 0.75 0
13 1 0
13.25 1 0
13.25 0.75 0
13.5 0.75 0
13.25 1 0
13.5 1 0
13.5 0.5 0
13.75 0.5 0
13.5 0.75 0
13.75 0.75 0
13.75 0.5 0
14 0.5 0
13.75 0.75 0
14 0.75 0
13.5 0.75 0
13.75 0.75 0
13.5 1 0
13.75 1 0
13.75 0.75 0
14 0.75 0
13.75 1 0
14 1 0
14 0 0
14.25 0 0
14 0.25 0
14.25 0.25 0
14.25 0 0
14.5 0 0
14.25 0.25 0
14.5 0.25 0
14 0.25 0
14.25 0.25 0
14 0.5 0
14.25 0.5 0
14.25 0.25 0
14.5 0.25 0
14.25 0.5 0
14.5 0.5 0
14.5 0 0
14.75 0 0
14.5 0.25 0
14.75 0.25 0
14.75 0 0
15 0 0
14.75 0.25 0
15 0.25 0
14.5 0.25 0
14.75 0.25 0
14.5 0.5 0
14.75 0.5 0
14.75 0.25 0
15 0.25 0
14.75 0.5 0
15 0.5 0
14 0.5 0
14.25 0.5 0
14 0.75 0
14.25 0.75 0
14.25 0.5 0
14.5 0.5 0
14.25 0.75 0
14.5 0.75 0
14 0.75 0
14.25 0.75 0
14 1 0
14.25 1 0
14.25 0.75 0
14.5 0.75 0
14.25 1 0
14.5 1 0
14.5 0.5 0
14.75 0.5 0
14.5 0.75 0
14.75 0.75 0
14.75 0.5 0
15 0.5 0
14.75 0.75 0
15 0.75 0
[...]
POINT_DATA 23040
SCALARS State_OptProblem double 1
LOOKUP_TABLE default
0 0 0 -0.00101931 0 0 -0.00101931 -0.00201105 0 -0.00101931 0 -0.0019867 -0.00101931 -0.00201105 -0.0019867 -0.00391755 0 0 -0.00201105 -0.00294969 0 0 -0.00294969 -0.00381352 -0.00201105 -0.00294969 -0.00391755 -0.00574095 -0.00294969 -0.00381352 -0.00574095 -0.00741338 0 -0.0019867 0 -0.00284756 -0.0019867 -0.00391755 -0.00284756 -0.00560942 0 -0.00284756 0 -0.00354236 -0.00284756 -0.00560942 -0.00354236 -0.00696653 -0.00391755 -0.00574095 -0.00560942 -0.00820682 -0.00574095 -0.00741338 -0.00820682 -0.010574 -0.00560942 -0.00820682 -0.00696653 -0.0101646 -0.00820682 -0.010574 -0.0101646 -0.013048 0 0 -0.00381352 -0.00458609 0 0 -0.00458609 -0.00525709 -0.00381352 -0.00458609 -0.00741338 -0.00890231 -0.00458609 -0.00525709 -0.00890231 -0.010188 0 0 -0.00525709 -0.00582259 0 0 -0.00582259 -0.00628475 -0.00525709 -0.00582259 -0.010188 -0.0112641 -0.00582259 -0.00628475 -0.0112641 -0.0121367 -0.00741338 -0.00890231 -0.010574 -0.0126632 -0.00890231 -0.010188 -0.0126632 -0.0144472 -0.010574 -0.0126632 -0.013048 -0.0155546 -0.0126632 -0.0144472 -0.0155546 -0.0176527 -0.010188 -0.0112641 -0.0144472 -0.01592 -0.0112641 -0.0121367 -0.01592 -0.0170957 -0.0144472 -0.01592 -0.0176527 -0.0193416 -0.01592 -0.0170957 -0.0193416 -0.0206496 0 0 -0.00628475 -0.00665089 0 0 -0.00665089 -0.00693228 -0.00628475 -0.00665089 -0.0121367 -0.0128227 -0.00665089 -0.00693228 -0.0128227 -0.0133466 0 0 -0.00693228 -0.00714265 0 0 -0.00714265 -0.00729657 -0.00693228 -0.00714265 -0.0133466 -0.0137379 -0.00714265 -0.00729657 -0.0137379 -0.0140273 -0.0121367 -0.0128227 -0.0170957 -0.0180049 -0.0128227 -0.0133466 -0.0180049 -0.0186901 -0.0170957 -0.0180049 -0.0206496 -0.0216279 -0.0180049 -0.0186901 -0.0216279 -0.0223439 -0.0133466 -0.0137379 -0.0186901 -0.0192004 -0.0137379 -0.0140273 -0.0192004 -0.0195859 -0.0186901 -0.0192004 -0.0223439 -0.022873 -0.0192004 -0.0195859 -0.022873 -0.0232896 0 0 -0.00729657 -0.00740812 0 0 -0.00740812 -0.00748961 -0.00729657 -0.00740812 -0.0140273 -0.0142439 -0.00740812 -0.00748961 -0.0142439 -0.0144129 0 0 -0.00748961 -0.00755075 0 0 -0.00755075 -0.00759814 -0.00748961 -0.00755075 -0.0144129 -0.0145532 -0.00755075 -0.00759814 -0.0145532 -0.0146773 -0.0140273 -0.0142439 -0.0195859 -0.019893 -0.0142439 -0.0144129 -0.019893 -0.0201602 -0.0195859 -0.019893 -0.0232896 -0.0236608 -0.019893 -0.0201602 -0.0236608 -0.0240398 -0.0144129 -0.0145532 -0.0201602 -0.0204155 -0.0145532 -0.0146773 -0.0204155 -0.0206748 -0.0201602 -0.0204155 -0.0240398 -0.0244624 -0.0204155 -0.0206748 -0.0244624 -0.024945 0 0 -0.00759814 -0.0076352 0 0 -0.0076352 -0.00766242 -0.00759814 -0.0076352 -0.0146773 -0.0147902 -0.0076352 -0.00766242 -0.0147902 -0.0148909 0 0 -0.00766242 -0.00767801 0 0 -0.00767801 -0.00767871 -0.00766242 -0.00767801 -0.0148909 -0.0149732 -0.00767801 -0.00767871 -0.0149732 -0.0150277 -0.0146773 -0.0147902 -0.0206748 -0.0209418 -0.0147902 -0.0148909 -0.0209418 -0.0212095 -0.0206748 -0.0209418 -0.024945 -0.0254849 -0.0209418 -0.0212095 -0.0254849 -0.0260621 -0.0148909 -0.0149732 -0.0212095 -0.0214619 -0.0149732 -0.0150277 -0.0214619 -0.0216778 -0.0212095 -0.0214619 -0.0260621 -0.0266429 -0.0214619 -0.0216778 -0.0266429 -0.0271851 0 0 -0.00767871 -0.00766094 0 0 -0.00766094 -0.00762186 -0.00767871 -0.00766094 -0.0150277 -0.0150443 -0.00766094 -0.00762186 -0.0150443 -0.0150145 0 0 -0.00762186 -0.00756051 0 0 -0.00756051 -0.00747866 -0.00762186 -0.00756051 -0.0150145 -0.0149337 -0.00756051 -0.00747866 -0.0149337 -0.0148033 -0.0150277 -0.0150443 -0.0216778 -0.0218346 -0.0150443 -0.0150145 -0.0218346 -0.021912 -0.0216778 -0.0218346 -0.0271851 -0.0276442 -0.0218346 -0.021912 -0.0276442 -0.0279792 -0.0150145 -0.0149337 -0.021912 -0.0218967 -0.0149337 -0.0148033 -0.0218967 -0.0217853 -0.021912 -0.0218967 -0.0279792 -0.0281596 -0.0218967 -0.0217853 -0.0281596 -0.0281702 0 0 -0.00747866 -0.00738141 0 0 -0.00738141 -0.00727737 -0.00747866 -0.00738141 -0.0148033 -0.0146319 -0.00738141 -0.00727737 -0.0146319 -0.0144359 0 0 -0.00727737 -0.00717825 0 0 -0.00717825 -0.00709803 -0.00727737 -0.00717825 -0.0144359 -0.0142385 -0.00717825 -0.00709803 -0.0142385 -0.0140683 -0.0148033 -0.0146319 -0.0217853 -0.0215865 -0.0146319 -0.0144359 -0.0215865 -0.0213226 -0.0217853 -0.0215865 -0.0281702 -0.0280152 -0.0215865 -0.0213226 -0.0280152 -0.0277199 -0.0144359 -0.0142385 -0.0213226 -0.0210283 -0.0142385 -0.0140683 -0.0210283 -0.0207478 -0.0213226 -0.0210283 -0.0277199 -0.0273295 -0.0210283 -0.0207478 -0.0273295 -0.0269062 0 0 -0.00709803 -0.00705139 0 0 -0.00705139 -0.00705175 -0.00709803 -0.00705139 -0.0140683 -0.0139559 -0.00705139 -0.00705175 -0.0139559 -0.0139301 0 0 -0.00705175 -0.00710877 0 0 -0.00710877 -0.00722574 -0.00705175 -0.00710877 -0.0139301 -0.0140125 -0.00710877 -0.00722574 -0.0140125 -0.0142123 -0.0140683 -0.0139559 -0.0207478 -0.0205304 -0.0139559 -0.0139301 -0.0205304 -0.0204241 -0.0207478 -0.0205304 -0.0269062 -0.0265222 -0.0205304 -0.0204241 -0.0265222 -0.0262507 -0.0139301 -0.0140125 -0.0204241 -0.0204674 -0.0140125 -0.0142123 -0.0204674 -0.0206802 -0.0204241 -0.0204674 -0.0262507 -0.0261545 -0.0204674 -0.0206802 -0.0261545 -0.0262731 0 0 -0.00722574 -0.00739685 0 0 -0.00739685 -0.00760491 -0.00722574 -0.00739685 -0.0142123 -0.0145201 -0.00739685 -0.00760491 -0.0145201 -0.0149036 0 0 -0.00760491 -0.00781976 0 0 -0.00781976 -0.00799785 -0.00760491 -0.00781976 -0.0149036 -0.0153039 -0.00781976 -0.00799785 -0.0153039 -0.0156341 -0.0142123 -0.0145201 -0.0206802 -0.0210551 -0.0145201 -0.0149036 -0.0210551 -0.0215489 -0.0206802 -0.0210551 -0.0262731 -0.0266088 -0.0210551 -0.0215489 -0.0266088 -0.0271147 -0.0149036 -0.0153039 -0.0215489 -0.0220766 -0.0153039 -0.0156341 -0.0220766 -0.022509 -0.0215489 -0.0220766 -0.0271147 -0.0276848 -0.0220766 -0.022509 -0.0276848 -0.0281497 0 0 -0.00799785 -0.00808345 0 0 -0.00808345 -0.00801176 -0.00799785 -0.00808345 -0.0156341 -0.0157817 -0.00808345 -0.00801176 -0.0157817 -0.0156148 0 0 -0.00801176 -0.00771438 0 0 -0.00771438 -0.0071271 -0.00801176 -0.00771438 -0.0156148 -0.0149926 -0.00771438 -0.0071271 -0.0149926 -0.0137811 -0.0156341 -0.0157817 -0.022509 -0.0226753 -0.0157817 -0.0156148 -0.0226753 -0.0223716 -0.022509 -0.0226753 -0.0281497 -0.0282783 -0.0226753 -0.0223716 -0.0282783 -0.0277886 -0.0156148 -0.0149926 -0.0223716 -0.0213771 -0.0149926 -0.0137811 -0.0213771 -0.0194776 -0.0223716 -0.0213771 -0.0277886 -0.026369 -0.0213771 -0.0194776 -0.026369 -0.0237094 0 0 -0.0071271 -0.0061999 0 0 -0.0061999 -0.00490859 -0.0071271 -0.0061999 -0.0137811 -0.0118738 -0.0061999 -0.00490859 -0.0118738 -0.00921508 0 0 -0.00490859 -0.0032667 0 0 -0.0032667 -0.0013358 -0.00490859 -0.0032667 -0.00921508 -0.00582543 -0.0032667 -0.0013358 -0.00582543 -0.00182397 -0.0137811 -0.0118738 -0.0194776 -0.0164965 -0.0118738 -0.00921508 -0.0164965 -0.0123324 -0.0194776 -0.0164965 -0.0237094 -0.0195441 -0.0164965 -0.0123324 -0.0195441 -0.0137031 -0.00921508 -0.00582543 -0.0123324 -0.00699866 -0.00582543 -0.00182397 -0.00699866 -0.00066227 -0.0123324 -0.00699866 -0.0137031 -0.00617049 -0.00699866 -0.00066227 -0.00617049 0.00285743 0 0 -0.0013358 0.000768998 0 0 0.000768998 0.00288151 -0.0013358 0.000768998 -0.00182397 0.00255802 0.000768998 0.00288151 0.00255802 0.00697956 0 0 0.00288151 0.00479798 0 0 0.00479798 0.00630212 0.00288151 0.00479798 0.00697956 0.0110158 0.00479798 0.00630212 0.0110158 0.0142095 -0.00182397 0.00255802 -0.00066227 0.00632973 0.00255802 0.00697956 0.00632973 0.0134468 -0.00066227 0.00632973 0.00285743 0.0129247 0.00632973 0.0134468 0.0129247 0.0232961 0.00697956 0.0110158 0.0134468 0.0200093 0.0110158 0.0142095 0.0200093 0.0252688 0.0134468 0.0200093 0.0232961 0.0329907 0.0200093 0.0252688 0.0329907 0.0408907 0 0 0.00630212 0.00719875 0 0 0.00719875 0.00734873 0.00630212 0.00719875 0.0142095 0.0161439 0.00719875 0.00734873 0.0161439 0.0165192 0 0 0.00734873 0.00669621 0 0 0.00669621 0.00527988 0.00734873 0.00669621 0.0165192 0.0152141 0.00669621 0.00527988 0.0152141 0.0123111 0.0142095 0.0161439 0.0252688 0.0285298 0.0161439 0.0165192 0.0285298 0.0292854 0.0252688 0.0285298 0.0408907 0.0459277 0.0285298 0.0292854 0.0459277 0.0473072 0.0165192 0.0152141 0.0292854 0.0273281 0.0152141 0.0123111 0.0273281 0.0227957 0.0292854 0.0273281 0.0473072 0.0446992 0.0273281 0.0227957 0.0446992 0.0383181 0 0 0.00527988 0.0032251 0 0 0.0032251 0.000719764 0.00527988 0.0032251 0.0123111 0.00807842 0.0032251 0.000719764 0.00807842 0.00291525 0 0 0.000719764 -0.00201858 0 0 -0.00201858 -0.00477512 0.000719764 -0.00201858 0.00291525 -0.00272059 -0.00201858 -0.00477512 -0.00272059 -0.0083826 0.0123111 0.00807842 0.0227957 0.0161374 0.00807842 0.00291525 0.0161374 0.00801416 0.0227957 0.0161374 0.0383181 0.0288613 0.0161374 0.00801416 0.0288613 0.0173353 0.00291525 -0.00272059 0.00801416 -0.000829439 -0.00272059 -0.0083826 -0.000829439 -0.00968246 0.00801416 -0.000829439 0.0173353 0.00484331 -0.000829439 -0.00968246 0.00484331 -0.00759446 0 0 -0.00477512 -0.00736309 0 0 -0.00736309 -0.00963857 -0.00477512 -0.00736309 -0.0083826 -0.0136876 -0.00736309 -0.00963857 -0.0136876 -0.0183444 0 0 -0.00963857 -0.0115057 0 0 -0.0115057 -0.0129145 -0.00963857 -0.0115057 -0.0183444 -0.022162 -0.0115057 -0.0129145 -0.022162 -0.0250431 -0.0083826 -0.0136876 -0.00968246 -0.0179485 -0.0136876 -0.0183444 -0.0179485 -0.0251846 -0.00968246 -0.0179485 -0.00759446 -0.0191498 -0.0179485 -0.0251846 -0.0191498 -0.0292274 -0.0183444 -0.022162 -0.0251846 -0.0311076 -0.022162 -0.0250431 -0.0311076 -0.0355788 -0.0251846 -0.0311076 -0.0292274 -0.0374588 -0.0311076 -0.0355788 -0.0374588 -0.0436737 0 0 -0.0129145 -0.0138544 0 0 -0.0138544 -0.0143465 -0.0129145 -0.0138544 -0.0250431 -0.0269702 -0.0138544 -0.0143465 -0.0269702 -0.0279884 0 0 -0.0143465 -0.0144346 0 0 -0.0144346 -0.0141784 -0.0143465 -0.0144346 -0.0279884 -0.0281889 -0.0144346 -0.0141784 -0.0281889 -0.0276935 -0.0250431 -0.0269702 -0.0355788 -0.0385801 -0.0269702 -0.0279884 -0.0385801 -0.0401872 -0.0355788 -0.0385801 -0.0436737 -0.0478624 -0.0385801 -0.0401872 -0.0478624 -0.0501397 -0.0279884 -0.0281889 -0.0401872 -0.0405443 -0.0281889 -0.0276935 -0.0405443 -0.039841 -0.0401872 -0.0405443 -0.0501397 -0.0507099 -0.0405443 -0.039841 -0.0507099 -0.0498382 0 0 -0.0141784 -0.0136459 0 0 -0.0136459 -0.0129085 -0.0141784 -0.0136459 -0.0276935 -0.0266415 -0.0136459 -0.0129085 -0.0266415 -0.025178 0 0 -0.0129085 -0.0120358 0 0 -0.0120358 -0.0110924 -0.0129085 -0.0120358 -0.025178 -0.0234448 -0.0120358 -0.0110924 -0.0234448 -0.0215731 -0.0276935 -0.0266415 -0.039841 -0.0382929 -0.0266415 -0.025178 -0.0382929 -0.0361243 -0.039841 -0.0382929 -0.0498382 -0.0478238 -0.0382929 -0.0361243 -0.0478238 -0.0449777 -0.025178 -0.0234448 -0.0361243 -0.033554 -0.0234448 -0.0215731 -0.033554 -0.0307839 -0.0361243 -0.033554 -0.0449777 -0.041603 -0.033554 -0.0307839 -0.041603 -0.0379787 0 0 -0.0110924 -0.0101346 0 0 -0.0101346 -0.009209 -0.0110924 -0.0101346 -0.0215731 -0.0196772 -0.0101346 -0.009209 -0.0196772 -0.0178513 0 0 -0.009209 -0.00835107 0 0 -0.00835107 -0.00758527 -0.009209 -0.00835107 -0.0178513 -0.0161667 -0.00835107 -0.00758527 -0.0161667 -0.0146719 -0.0215731 -0.0196772 -0.0307839 -0.0279897 -0.0196772 -0.0178513 -0.0279897 -0.0253151 -0.0307839 -0.0279897 -0.0379787 -0.0343468 -0.0279897 -0.0253151 -0.0343468 -0.0309038 -0.0178513 -0.0161667 -0.0253151 -0.0228681 -0.0161667 -0.0146719 -0.0228681 -0.0207202 -0.0253151 -0.0228681 -0.0309038 -0.0277947 -0.0228681 -0.0207202 -0.0277947 -0.025113 0 0 -0.00758527 -0.00692556 0 0 -0.00692556 -0.00637662 -0.00758527 -0.00692556 -0.0146719 -0.0133938 -0.00692556 -0.00637662 -0.0133938 -0.01234 0 0 -0.00637662 -0.0059357 0 0 -0.0059357 -0.0055948 -0.00637662 -0.0059357 -0.01234 -0.0115029 -0.0059357 -0.0055948 -0.0115029 -0.0108641 -0.0146719 -0.0133938 -0.0207202 -0.0189089 -0.0133938 -0.01234 -0.0189089 -0.0174411 -0.0207202 -0.0189089 -0.025113 -0.0229024 -0.0189089 -0.0174411 -0.0229024 -0.0211638 -0.01234 -0.0115029 -0.0174411 -0.0163 -0.0115029 -0.0108641 -0.0163 -0.0154519 -0.0174411 -0.0163 -0.0211638 -0.0198636 -0.0163 -0.0154519 -0.0198636 -0.0189451 0 0 -0.0055948 -0.00534294 0 0 -0.00534294 -0.00516841 -0.0055948 -0.00534294 -0.0108641 -0.0103995 -0.00534294 -0.00516841 -0.0103995 -0.0100836 0 0 -0.00516841 -0.00506065 0 0 -0.00506065 -0.00501168 -0.00516841 -0.00506065 -0.0100836 -0.00989382 -0.00506065 -0.00501168 -0.00989382 -0.00981346 -0.0108641 -0.0103995 -0.0154519 -0.0148547 -0.0103995 -0.0100836 -0.0148547 -0.0144649 -0.0154519 -0.0148547 -0.0189451 -0.0183402 -0.0148547 -0.0144649 -0.0183402 -0.017981 -0.0100836 -0.00989382 -0.0144649 -0.0142451 -0.00989382 -0.00981346 -0.0142451 -0.0141681 -0.0144649 -0.0142451 -0.017981 -0.0178101 -0.0142451 -0.0141681 -0.0178101 -0.0177875 0 0 -0.00501168 -0.00501679 0 0 -0.00501679 -0.00507466 -0.00501168 -0.00501679 -0.00981346 -0.0098331 -0.00501679 -0.00507466 -0.0098331 -0.00995078 0 0 -0.00507466 -0.00518674 0 0 -0.00518674 -0.00535621 -0.00507466 -0.00518674 -0.00995078 -0.0101707 -0.00518674 -0.00535621 -0.0101707 -0.0105007 -0.00981346 -0.0098331 -0.0141681 -0.0142199 -0.0098331 -0.00995078 -0.0142199 -0.0143994 -0.0141681 -0.0142199 -0.0177875 -0.0178948 -0.0142199 -0.0143994 -0.0178948 -0.0181344 -0.00995078 -0.0101707 -0.0143994 -0.0147162 -0.0101707 -0.0105007 -0.0147162 -0.0151865 -0.0143994 -0.0147162 -0.0181344 -0.0185259 -0.0147162 -0.0151865 -0.0185259 -0.0190994 0 0 -0.00535621 -0.00558668 0 0 -0.00558668 -0.00588078 -0.00535621 -0.00558668 -0.0105007 -0.0109498 -0.00558668 -0.00588078 -0.0109498 -0.0115246 0 0 -0.00588078 -0.00623896 0 0 -0.00623896 -0.0066587 -0.00588078 -0.00623896 -0.0115246 -0.0122275 -0.00623896 -0.0066587 -0.0122275 -0.0130539 -0.0105007 -0.0109498 -0.0151865 -0.0158279 -0.0109498 -0.0115246 -0.0158279 -0.0166546 -0.0151865 -0.0158279 -0.0190994 -0.0198875 -0.0158279 -0.0166546 -0.0198875 -0.020917 -0.0115246 -0.0122275 -0.0166546 -0.017673 -0.0122275 -0.0130539 -0.017673 -0.0188783 -0.0166546 -0.017673 -0.020917 -0.0222022 -0.017673 -0.0188783 -0.0222022 -0.0237407 0 0 -0.0066587 -0.00713398 0 0 -0.00713398 -0.0076553 -0.0066587 -0.00713398 -0.0130539 -0.0139923 -0.00713398 -0.0076553 -0.0139923 -0.0150234 0 0 -0.0076553 -0.00821 0 0 -0.00821 -0.00878284 -0.0076553 -0.00821 -0.0150234 -0.0161217 -0.00821 -0.00878284 -0.0161217 -0.017256 -0.0130539 -0.0139923 -0.0188783 -0.0202539 -0.0139923 -0.0150234 -0.0202539 -0.0217708 -0.0188783 -0.0202539 -0.0237407 -0.0255114 -0.0202539 -0.0217708 -0.0255114 -0.0274752 -0.0150234 -0.0161217 -0.0217708 -0.0233894 -0.0161217 -0.017256 -0.0233894 -0.0250616 -0.0217708 -0.0233894 -0.0274752 -0.0295769 -0.0233894 -0.0250616 -0.0295769 -0.0317496 0 0 -0.00878284 -0.00935686 0 0 -0.00935686 -0.00991427 -0.00878284 -0.00935686 -0.017256 -0.0183917 -0.00935686 -0.00991427 -0.0183917 -0.0194924 0 0 -0.00991427 -0.0104375 0 0 -0.0104375 -0.0109101 -0.00991427 -0.0104375 -0.0194924 -0.0205223 -0.0104375 -0.0109101 -0.0205223 -0.0214481 -0.017256 -0.0183917 -0.0250616 -0.0267335 -0.0183917 -0.0194924 -0.0267335 -0.0283486 -0.0250616 -0.0267335 -0.0317496 -0.0339177 -0.0267335 -0.0283486 -0.0339177 -0.0360025 -0.0194924 -0.0205223 -0.0283486 -0.0298515 -0.0205223 -0.0214481 -0.0298515 -0.0311906 -0.0283486 -0.0298515 -0.0360025 -0.0379262 -0.0298515 -0.0311906 -0.0379262 -0.0396175 0 0 -0.0109101 -0.0113181 0 0 -0.0113181 -0.0116503 -0.0109101 -0.0113181 -0.0214481 -0.0222411 -0.0113181 -0.0116503 -0.0222411 -0.0228793 0 0 -0.0116503 -0.0118991 0 0 -0.0118991 -0.0120609 -0.0116503 -0.0118991 -0.0228793 -0.0233482 -0.0118991 -0.0120609 -0.0233482 -0.0236414 -0.0214481 -0.0222411 -0.0311906 -0.0323223 -0.0222411 -0.0228793 -0.0323223 -0.0332134 -0.0311906 -0.0323223 -0.0396175 -0.0410163 -0.0323223 -0.0332134 -0.0410163 -0.0420784 -0.0228793 -0.0233482 -0.0332134 -0.0338435 -0.0233482 -0.0236414 -0.0338435 -0.0342059 -0.0332134 -0.0338435 -0.0420784 -0.0427789 -0.0338435 -0.0342059 -0.0427789 -0.0431137 0 0 -0.0120609 -0.0121358 0 0 -0.0121358 -0.0121269 -0.0120609 -0.0121358 -0.0236414 -0.0237605 -0.0121358 -0.0121269 -0.0237605 -0.0237138 0 0 -0.0121269 -0.0120396 0 0 -0.0120396 -0.0118803 -0.0121269 -0.0120396 -0.0237138 -0.0235139 -0.0120396 -0.0118803 -0.0235139 -0.0231758 -0.0236414 -0.0237605 -0.0342059 -0.0343065 -0.0237605 -0.0237138 -0.0343065 -0.0341627 -0.0342059 -0.0343065 -0.0431137 -0.0430986 -0.0343065 -0.0341627 -0.0430986 -0.0427657 -0.0237138 -0.0235139 -0.0341627 -0.0337988 -0.0235139 -0.0231758 -0.0337988 -0.0332428 -0.0341627 -0.0337988 -0.0427657 -0.0421584 -0.0337988 -0.0332428 -0.0421584 -0.0413242 0 0 -0.0118803 -0.0116552 0 0 -0.0116552 -0.0113693 -0.0118803 -0.0116552 -0.0231758 -0.022714 -0.0116552 -0.0113693 -0.022714 -0.0221398 0 0 -0.0113693 -0.0110256 0 0 -0.0110256 -0.0106239 -0.0113693 -0.0110256 -0.0221398 -0.02146 -0.0110256 -0.0106239 -0.02146 -0.0206748 -0.0231758 -0.022714 -0.0332428 -0.032521 -0.022714 -0.0221398 -0.032521 -0.0316545 -0.0332428 -0.032521 -0.0413242 -0.0403079 -0.032521 -0.0316545 -0.0403079 -0.0391451 -0.0221398 -0.02146 -0.0316545 -0.0306556 -0.02146 -0.0206748 -0.0306556 -0.0295257 -0.0316545 -0.0306556 -0.0391451 -0.0378569 -0.0306556 -0.0295257 -0.0378569 -0.0364466 0 0 -0.0106239 -0.0101617 0 0 -0.0101617 -0.00963369 -0.0106239 -0.0101617 -0.0206748 -0.0197785 -0.0101617 -0.00963369 -0.0197785 -0.0187597 0 0 -0.00963369 -0.00903315 0 0 -0.00903315 -0.00835279 -0.00963369 -0.00903315 -0.0187597 -0.0176033 -0.00903315 -0.00835279 -0.0176033 -0.0162929 -0.0206748 -0.0197785 -0.0295257 -0.028255 -0.0197785 -0.0187597 -0.028255 -0.026824 -0.0295257 -0.028255 -0.0364466 -0.0348995 -0.028255 -0.026824 -0.0348995 -0.033184 -0.0187597 -0.0176033 -0.026824 -0.0252059 -0.0176033 -0.0162929 -0.0252059 -0.0233712 -0.026824 -0.0252059 -0.033184 -0.0312569 -0.0252059 -0.0233712 -0.0312569 -0.0290687 0 0 -0.00835279 -0.00758627 0 0 -0.00758627 -0.00672955 -0.00835279 -0.00758627 -0.0162929 -0.0148137 -0.00758627 -0.00672955 -0.0148137 -0.0131556 0 0 -0.00672955 -0.00578218 0 0 -0.00578218 -0.00474829 -0.00672955 -0.00578218 -0.0131556 -0.011316 -0.00578218 -0.00474829 -0.011316 -0.00930194 -0.0162929 -0.0148137 -0.0233712 -0.0212922 -0.0148137 -0.0131556 -0.0212922 -0.0189486 -0.0233712 -0.0212922 -0.0290687 -0.0265721 -0.0212922 -0.0189486 -0.0265721 -0.0237299 -0.0131556 -0.011316 -0.0189486 -0.0163322 -0.011316 -0.00930194 -0.0163322 -0.0134501 -0.0189486 -0.0163322 -0.0237299 -0.020522 -0.0163322 -0.0134501 -0.020522 -0.0169517 0 0 -0.00474829 -0.00363699 0 0 -0.00363699 -0.00246237 -0.00474829 -0.00363699 -0.00930194 -0.00713088 -0.00363699 -0.00246237 -0.00713088 -0.00483091 0 0 -0.00246237 -0.00124284 0 0 -0.00124284 0 -0.00246237 -0.00124284 -0.00483091 -0.00243928 -0.00124284 0 -0.00243928 0 -0.00930194 -0.00713088 -0.0134501 -0.0103268 -0.00713088 -0.00483091 -0.0103268 -0.00700419 -0.0134501 -0.0103268 -0.0169517 -0.0130481 -0.0103268 -0.00700419 -0.0130481 -0.00886663 -0.00483091 -0.00243928 -0.00700419 -0.00353918 -0.00243928 0 -0.00353918 0 -0.00700419 -0.00353918 -0.00886663 -0.00448549 -0.00353918 0 -0.00448549 0 0 -0.00354236 0 -0.00400545 -0.00354236 -0.00696653 -0.00400545 -0.00785603 0 -0.00400545 0 -0.00416523 -0.00400545 -0.00785603 -0.00416523 -0.00813263 -0.00696653 -0.0101646 -0.00785603 -0.0114115 -0.0101646 -0.013048 -0.0114115 -0.0145593 -0.00785603 -0.0114115 -0.00813263 -0.0117249 -0.0114115 -0.0145593 -0.0117249 -0.0148031 0 -0.00416523 0 -0.00394629 -0.00416523 -0.00813263 -0.00394629 -0.00764265 0 -0.00394629 0 -0.00327385 -0.00394629 -0.00764265 -0.00327385 -0.00623269 -0.00813263 -0.0117249 -0.00764265 -0.0108673 -0.0117249 -0.0148031 -0.0108673 -0.0134518 -0.00764265 -0.0108673 -0.00623269 -0.00859994 -0.0108673 -0.0134518 -0.00859994 -0.0101716 -0.013048 -0.0155546 -0.0145593 -0.0172244 -0.0155546 -0.0176527 -0.0172244 -0.0193746 -0.0145593 -0.0172244 -0.0148031 -0.0172809 -0.0172244 -0.0193746 -0.0172809 -0.0191312 -0.0176527 -0.0193416 -0.0193746 -0.0210215 -0.0193416 -0.