# vtk DataFile Version 3.0
#This file was generated by the deal.II library on 2012/5/30 at 15:25:57
ASCII
DATASET UNSTRUCTURED_GRID

POINTS 23040 double
0 0 0
0.25 0 0
0 0.25 0
0.25 0.25 0
0.25 0 0
0.5 0 0
0.25 0.25 0
0.5 0.25 0
0 0.25 0
0.25 0.25 0
0 0.5 0
0.25 0.5 0
0.25 0.25 0
0.5 0.25 0
0.25 0.5 0
0.5 0.5 0
0.5 0 0
0.75 0 0
0.5 0.25 0
0.75 0.25 0
0.75 0 0
1 0 0
0.75 0.25 0
1 0.25 0
0.5 0.25 0
0.75 0.25 0
0.5 0.5 0
0.75 0.5 0
0.75 0.25 0
1 0.25 0
0.75 0.5 0
1 0.5 0
0 0.5 0
0.25 0.5 0
0 0.75 0
0.25 0.75 0
0.25 0.5 0
0.5 0.5 0
0.25 0.75 0
0.5 0.75 0
0 0.75 0
0.25 0.75 0
0 1 0
0.25 1 0
0.25 0.75 0
0.5 0.75 0
0.25 1 0
0.5 1 0
0.5 0.5 0
0.75 0.5 0
0.5 0.75 0
0.75 0.75 0
0.75 0.5 0
1 0.5 0
0.75 0.75 0
1 0.75 0
0.5 0.75 0
0.75 0.75 0
0.5 1 0
0.75 1 0
0.75 0.75 0
1 0.75 0
0.75 1 0
1 1 0
1 0 0
1.25 0 0
1 0.25 0
1.25 0.25 0
1.25 0 0
1.5 0 0
1.25 0.25 0
1.5 0.25 0
1 0.25 0
1.25 0.25 0
1 0.5 0
1.25 0.5 0
1.25 0.25 0
1.5 0.25 0
1.25 0.5 0
1.5 0.5 0
1.5 0 0
1.75 0 0
1.5 0.25 0
1.75 0.25 0
1.75 0 0
2 0 0
1.75 0.25 0
2 0.25 0
1.5 0.25 0
1.75 0.25 0
1.5 0.5 0
1.75 0.5 0
1.75 0.25 0
2 0.25 0
1.75 0.5 0
2 0.5 0
1 0.5 0
1.25 0.5 0
1 0.75 0
1.25 0.75 0
1.25 0.5 0
1.5 0.5 0
1.25 0.75 0
1.5 0.75 0
1 0.75 0
1.25 0.75 0
1 1 0
1.25 1 0
1.25 0.75 0
1.5 0.75 0
1.25 1 0
1.5 1 0
1.5 0.5 0
1.75 0.5 0
1.5 0.75 0
1.75 0.75 0
1.75 0.5 0
2 0.5 0
1.75 0.75 0
2 0.75 0
1.5 0.75 0
1.75 0.75 0
1.5 1 0
1.75 1 0
1.75 0.75 0
2 0.75 0
1.75 1 0
2 1 0
2 0 0
2.25 0 0
2 0.25 0
2.25 0.25 0
2.25 0 0
2.5 0 0
2.25 0.25 0
2.5 0.25 0
2 0.25 0
2.25 0.25 0
2 0.5 0
2.25 0.5 0
2.25 0.25 0
2.5 0.25 0
2.25 0.5 0
2.5 0.5 0
2.5 0 0
2.75 0 0
2.5 0.25 0
2.75 0.25 0
2.75 0 0
3 0 0
2.75 0.25 0
3 0.25 0
2.5 0.25 0
2.75 0.25 0
2.5 0.5 0
2.75 0.5 0
2.75 0.25 0
3 0.25 0
2.75 0.5 0
3 0.5 0
2 0.5 0
2.25 0.5 0
2 0.75 0
2.25 0.75 0
2.25 0.5 0
2.5 0.5 0
2.25 0.75 0
2.5 0.75 0
2 0.75 0
2.25 0.75 0
2 1 0
2.25 1 0
2.25 0.75 0
2.5 0.75 0
2.25 1 0
2.5 1 0
2.5 0.5 0
2.75 0.5 0
2.5 0.75 0
2.75 0.75 0
2.75 0.5 0
3 0.5 0
2.75 0.75 0
3 0.75 0
2.5 0.75 0
2.75 0.75 0
2.5 1 0
2.75 1 0
2.75 0.75 0
3 0.75 0
2.75 1 0
3 1 0
3 0 0
3.25 0 0
3 0.25 0
3.25 0.25 0
3.25 0 0
3.5 0 0
3.25 0.25 0
3.5 0.25 0
3 0.25 0
3.25 0.25 0
3 0.5 0
3.25 0.5 0
3.25 0.25 0
3.5 0.25 0
3.25 0.5 0
3.5 0.5 0
3.5 0 0
3.75 0 0
3.5 0.25 0
3.75 0.25 0
3.75 0 0
4 0 0
3.75 0.25 0
4 0.25 0
3.5 0.25 0
3.75 0.25 0
3.5 0.5 0
3.75 0.5 0
3.75 0.25 0
4 0.25 0
3.75 0.5 0
4 0.5 0
3 0.5 0
3.25 0.5 0
3 0.75 0
3.25 0.75 0
3.25 0.5 0
3.5 0.5 0
3.25 0.75 0
3.5 0.75 0
3 0.75 0
3.25 0.75 0
3 1 0
3.25 1 0
3.25 0.75 0
3.5 0.75 0
3.25 1 0
3.5 1 0
3.5 0.5 0
3.75 0.5 0
3.5 0.75 0
3.75 0.75 0
3.75 0.5 0
4 0.5 0
3.75 0.75 0
4 0.75 0
3.5 0.75 0
3.75 0.75 0
3.5 1 0
3.75 1 0
3.75 0.75 0
4 0.75 0
3.75 1 0
4 1 0
4 0 0
4.25 0 0
4 0.25 0
4.25 0.25 0
4.25 0 0
4.5 0 0
4.25 0.25 0
4.5 0.25 0
4 0.25 0
4.25 0.25 0
4 0.5 0
4.25 0.5 0
4.25 0.25 0
4.5 0.25 0
4.25 0.5 0
4.5 0.5 0
4.5 0 0
4.75 0 0
4.5 0.25 0
4.75 0.25 0
4.75 0 0
5 0 0
4.75 0.25 0
5 0.25 0
4.5 0.25 0
4.75 0.25 0
4.5 0.5 0
4.75 0.5 0
4.75 0.25 0
5 0.25 0
4.75 0.5 0
5 0.5 0
4 0.5 0
4.25 0.5 0
4 0.75 0
4.25 0.75 0
4.25 0.5 0
4.5 0.5 0
4.25 0.75 0
4.5 0.75 0
4 0.75 0
4.25 0.75 0
4 1 0
4.25 1 0
4.25 0.75 0
4.5 0.75 0
4.25 1 0
4.5 1 0
4.5 0.5 0
4.75 0.5 0
4.5 0.75 0
4.75 0.75 0
4.75 0.5 0
5 0.5 0
4.75 0.75 0
5 0.75 0
4.5 0.75 0
4.75 0.75 0
4.5 1 0
4.75 1 0
4.75 0.75 0
5 0.75 0
4.75 1 0
5 1 0
5 0 0
5.25 0 0
5 0.25 0
5.25 0.25 0
5.25 0 0
5.5 0 0
5.25 0.25 0
5.5 0.25 0
5 0.25 0
5.25 0.25 0
5 0.5 0
5.25 0.5 0
5.25 0.25 0
5.5 0.25 0
5.25 0.5 0
5.5 0.5 0
5.5 0 0
5.75 0 0
5.5 0.25 0
5.75 0.25 0
5.75 0 0
6 0 0
5.75 0.25 0
6 0.25 0
5.5 0.25 0
5.75 0.25 0
5.5 0.5 0
5.75 0.5 0
5.75 0.25 0
6 0.25 0
5.75 0.5 0
6 0.5 0
5 0.5 0
5.25 0.5 0
5 0.75 0
5.25 0.75 0
5.25 0.5 0
5.5 0.5 0
5.25 0.75 0
5.5 0.75 0
5 0.75 0
5.25 0.75 0
5 1 0
5.25 1 0
5.25 0.75 0
5.5 0.75 0
5.25 1 0
5.5 1 0
5.5 0.5 0
5.75 0.5 0
5.5 0.75 0
5.75 0.75 0
5.75 0.5 0
6 0.5 0
5.75 0.75 0
6 0.75 0
5.5 0.75 0
5.75 0.75 0
5.5 1 0
5.75 1 0
5.75 0.75 0
6 0.75 0
5.75 1 0
6 1 0
6 0 0
6.25 0 0
6 0.25 0
6.25 0.25 0
6.25 0 0
6.5 0 0
6.25 0.25 0
6.5 0.25 0
6 0.25 0
6.25 0.25 0
6 0.5 0
6.25 0.5 0
6.25 0.25 0
6.5 0.25 0
6.25 0.5 0
6.5 0.5 0
6.5 0 0
6.75 0 0
6.5 0.25 0
6.75 0.25 0
6.75 0 0
7 0 0
6.75 0.25 0
7 0.25 0
6.5 0.25 0
6.75 0.25 0
6.5 0.5 0
6.75 0.5 0
6.75 0.25 0
7 0.25 0
6.75 0.5 0
7 0.5 0
6 0.5 0
6.25 0.5 0
6 0.75 0
6.25 0.75 0
6.25 0.5 0
6.5 0.5 0
6.25 0.75 0
6.5 0.75 0
6 0.75 0
6.25 0.75 0
6 1 0
6.25 1 0
6.25 0.75 0
6.5 0.75 0
6.25 1 0
6.5 1 0
6.5 0.5 0
6.75 0.5 0
6.5 0.75 0
6.75 0.75 0
6.75 0.5 0
7 0.5 0
6.75 0.75 0
7 0.75 0
6.5 0.75 0
6.75 0.75 0
6.5 1 0
6.75 1 0
6.75 0.75 0
7 0.75 0
6.75 1 0
7 1 0
7 0 0
7.25 0 0
7 0.25 0
7.25 0.25 0
7.25 0 0
7.5 0 0
7.25 0.25 0
7.5 0.25 0
7 0.25 0
7.25 0.25 0
7 0.5 0
7.25 0.5 0
7.25 0.25 0
7.5 0.25 0
7.25 0.5 0
7.5 0.5 0
7.5 0 0
7.75 0 0
7.5 0.25 0
7.75 0.25 0
7.75 0 0
8 0 0
7.75 0.25 0
8 0.25 0
7.5 0.25 0
7.75 0.25 0
7.5 0.5 0
7.75 0.5 0
7.75 0.25 0
8 0.25 0
7.75 0.5 0
8 0.5 0
7 0.5 0
7.25 0.5 0
7 0.75 0
7.25 0.75 0
7.25 0.5 0
7.5 0.5 0
7.25 0.75 0
7.5 0.75 0
7 0.75 0
7.25 0.75 0
7 1 0
7.25 1 0
7.25 0.75 0
7.5 0.75 0
7.25 1 0
7.5 1 0
7.5 0.5 0
7.75 0.5 0
7.5 0.75 0
7.75 0.75 0
7.75 0.5 0
8 0.5 0
7.75 0.75 0
8 0.75 0
7.5 0.75 0
7.75 0.75 0
7.5 1 0
7.75 1 0
7.75 0.75 0
8 0.75 0
7.75 1 0
8 1 0
8 0 0
8.25 0 0
8 0.25 0
8.25 0.25 0
8.25 0 0
8.5 0 0
8.25 0.25 0
8.5 0.25 0
8 0.25 0
8.25 0.25 0
8 0.5 0
8.25 0.5 0
8.25 0.25 0
8.5 0.25 0
8.25 0.5 0
8.5 0.5 0
8.5 0 0
8.75 0 0
8.5 0.25 0
8.75 0.25 0
8.75 0 0
9 0 0
8.75 0.25 0
9 0.25 0
8.5 0.25 0
8.75 0.25 0
8.5 0.5 0
8.75 0.5 0
8.75 0.25 0
9 0.25 0
8.75 0.5 0
9 0.5 0
8 0.5 0
8.25 0.5 0
8 0.75 0
8.25 0.75 0
8.25 0.5 0
8.5 0.5 0
8.25 0.75 0
8.5 0.75 0
8 0.75 0
8.25 0.75 0
8 1 0
8.25 1 0
8.25 0.75 0
8.5 0.75 0
8.25 1 0
8.5 1 0
8.5 0.5 0
8.75 0.5 0
8.5 0.75 0
8.75 0.75 0
8.75 0.5 0
9 0.5 0
8.75 0.75 0
9 0.75 0
8.5 0.75 0
8.75 0.75 0
8.5 1 0
8.75 1 0
8.75 0.75 0
9 0.75 0
8.75 1 0
9 1 0
9 0 0
9.25 0 0
9 0.25 0
9.25 0.25 0
9.25 0 0
9.5 0 0
9.25 0.25 0
9.5 0.25 0
9 0.25 0
9.25 0.25 0
9 0.5 0
9.25 0.5 0
9.25 0.25 0
9.5 0.25 0
9.25 0.5 0
9.5 0.5 0
9.5 0 0
9.75 0 0
9.5 0.25 0
9.75 0.25 0
9.75 0 0
10 0 0
9.75 0.25 0
10 0.25 0
9.5 0.25 0
9.75 0.25 0
9.5 0.5 0
9.75 0.5 0
9.75 0.25 0
10 0.25 0
9.75 0.5 0
10 0.5 0
9 0.5 0
9.25 0.5 0
9 0.75 0
9.25 0.75 0
9.25 0.5 0
9.5 0.5 0
9.25 0.75 0
9.5 0.75 0
9 0.75 0
9.25 0.75 0
9 1 0
9.25 1 0
9.25 0.75 0
9.5 0.75 0
9.25 1 0
9.5 1 0
9.5 0.5 0
9.75 0.5 0
9.5 0.75 0
9.75 0.75 0
9.75 0.5 0
10 0.5 0
9.75 0.75 0
10 0.75 0
9.5 0.75 0
9.75 0.75 0
9.5 1 0
9.75 1 0
9.75 0.75 0
10 0.75 0
9.75 1 0
10 1 0
10 0 0
10.25 0 0
10 0.25 0
10.25 0.25 0
10.25 0 0
10.5 0 0
10.25 0.25 0
10.5 0.25 0
10 0.25 0
10.25 0.25 0
10 0.5 0
10.25 0.5 0
10.25 0.25 0
10.5 0.25 0
10.25 0.5 0
10.5 0.5 0
10.5 0 0
10.75 0 0
10.5 0.25 0
10.75 0.25 0
10.75 0 0
11 0 0
10.75 0.25 0
11 0.25 0
10.5 0.25 0
10.75 0.25 0
10.5 0.5 0
10.75 0.5 0
10.75 0.25 0
11 0.25 0
10.75 0.5 0
11 0.5 0
10 0.5 0
10.25 0.5 0
10 0.75 0
10.25 0.75 0
10.25 0.5 0
10.5 0.5 0
10.25 0.75 0
10.5 0.75 0
10 0.75 0
10.25 0.75 0
10 1 0
10.25 1 0
10.25 0.75 0
10.5 0.75 0
10.25 1 0
10.5 1 0
10.5 0.5 0
10.75 0.5 0
10.5 0.75 0
10.75 0.75 0
10.75 0.5 0
11 0.5 0
10.75 0.75 0
11 0.75 0
10.5 0.75 0
10.75 0.75 0
10.5 1 0
10.75 1 0
10.75 0.75 0
11 0.75 0
10.75 1 0
11 1 0
11 0 0
11.25 0 0
11 0.25 0
11.25 0.25 0
11.25 0 0
11.5 0 0
11.25 0.25 0
11.5 0.25 0
11 0.25 0
11.25 0.25 0
11 0.5 0
11.25 0.5 0
11.25 0.25 0
11.5 0.25 0
11.25 0.5 0
11.5 0.5 0
11.5 0 0
11.75 0 0
11.5 0.25 0
11.75 0.25 0
11.75 0 0
12 0 0
11.75 0.25 0
12 0.25 0
11.5 0.25 0
11.75 0.25 0
11.5 0.5 0
11.75 0.5 0
11.75 0.25 0
12 0.25 0
11.75 0.5 0
12 0.5 0
11 0.5 0
11.25 0.5 0
11 0.75 0
11.25 0.75 0
11.25 0.5 0
11.5 0.5 0
11.25 0.75 0
11.5 0.75 0
11 0.75 0
11.25 0.75 0
11 1 0
11.25 1 0
11.25 0.75 0
11.5 0.75 0
11.25 1 0
11.5 1 0
11.5 0.5 0
11.75 0.5 0
11.5 0.75 0
11.75 0.75 0
11.75 0.5 0
12 0.5 0
11.75 0.75 0
12 0.75 0
11.5 0.75 0
11.75 0.75 0
11.5 1 0
11.75 1 0
11.75 0.75 0
12 0.75 0
11.75 1 0
12 1 0
12 0 0
12.25 0 0
12 0.25 0
12.25 0.25 0
12.25 0 0
12.5 0 0
12.25 0.25 0
12.5 0.25 0
12 0.25 0
12.25 0.25 0
12 0.5 0
12.25 0.5 0
12.25 0.25 0
12.5 0.25 0
12.25 0.5 0
12.5 0.5 0
12.5 0 0
12.75 0 0
12.5 0.25 0
12.75 0.25 0
12.75 0 0
13 0 0
12.75 0.25 0
13 0.25 0
12.5 0.25 0
12.75 0.25 0
12.5 0.5 0
12.75 0.5 0
12.75 0.25 0
13 0.25 0
12.75 0.5 0
13 0.5 0
12 0.5 0
12.25 0.5 0
12 0.75 0
12.25 0.75 0
12.25 0.5 0
12.5 0.5 0
12.25 0.75 0
12.5 0.75 0
12 0.75 0
12.25 0.75 0
12 1 0
12.25 1 0
12.25 0.75 0
12.5 0.75 0
12.25 1 0
12.5 1 0
12.5 0.5 0
12.75 0.5 0
12.5 0.75 0
12.75 0.75 0
12.75 0.5 0
13 0.5 0
12.75 0.75 0
13 0.75 0
12.5 0.75 0
12.75 0.75 0
12.5 1 0
12.75 1 0
12.75 0.75 0
13 0.75 0
12.75 1 0
13 1 0
13 0 0
13.25 0 0
13 0.25 0
13.25 0.25 0
13.25 0 0
13.5 0 0
13.25 0.25 0
13.5 0.25 0
13 0.25 0
13.25 0.25 0
13 0.5 0
13.25 0.5 0
13.25 0.25 0
13.5 0.25 0
13.25 0.5 0
13.5 0.5 0
13.5 0 0
13.75 0 0
13.5 0.25 0
13.75 0.25 0
13.75 0 0
14 0 0
13.75 0.25 0
14 0.25 0
13.5 0.25 0
13.75 0.25 0
13.5 0.5 0
13.75 0.5 0
13.75 0.25 0
14 0.25 0
13.75 0.5 0
14 0.5 0
13 0.5 0
13.25 0.5 0
13 0.75 0
13.25 0.75 0
13.25 0.5 0
13.5 0.5 0
13.25 0.75 0
13.5 0.75 0
13 0.75 0
13.25 0.75 0
13 1 0
13.25 1 0
13.25 0.75 0
13.5 0.75 0
13.25 1 0
13.5 1 0
13.5 0.5 0
13.75 0.5 0
13.5 0.75 0
13.75 0.75 0
13.75 0.5 0
14 0.5 0
13.75 0.75 0
14 0.75 0
13.5 0.75 0
13.75 0.75 0
13.5 1 0
13.75 1 0
13.75 0.75 0
14 0.75 0
13.75 1 0
14 1 0
14 0 0
14.25 0 0
14 0.25 0
14.25 0.25 0
14.25 0 0
14.5 0 0
14.25 0.25 0
14.5 0.25 0
14 0.25 0
14.25 0.25 0
14 0.5 0
14.25 0.5 0
14.25 0.25 0
14.5 0.25 0
14.25 0.5 0
14.5 0.5 0
14.5 0 0
14.75 0 0
14.5 0.25 0
14.75 0.25 0
14.75 0 0
15 0 0
14.75 0.25 0
15 0.25 0
14.5 0.25 0
14.75 0.25 0
14.5 0.5 0
14.75 0.5 0
14.75 0.25 0
15 0.25 0
14.75 0.5 0
15 0.5 0
14 0.5 0
14.25 0.5 0
14 0.75 0
14.25 0.75 0
14.25 0.5 0
14.5 0.5 0
14.25 0.75 0
14.5 0.75 0
14 0.75 0
14.25 0.75 0
14 1 0
14.25 1 0
14.25 0.75 0
14.5 0.75 0
14.25 1 0
14.5 1 0
14.5 0.5 0
14.75 0.5 0
14.5 0.75 0
14.75 0.75 0
14.75 0.5 0
15 0.5 0
14.75 0.75 0
15 0.75 0
[...]
POINT_DATA 23040
SCALARS State_OptProblem double 1
LOOKUP_TABLE default
0 0 0 3.73014e-06 0 0 3.73014e-06 8.1922e-06 0 3.73014e-06 0 8.53647e-06 3.73014e-06 8.1922e-06 8.53647e-06 1.74482e-05 0 0 8.1922e-06 1.40605e-05 0 0 1.40605e-05 2.18683e-05 8.1922e-06 1.40605e-05 1.74482e-05 2.71772e-05 1.40605e-05 2.18683e-05 2.71772e-05 3.81975e-05 0 8.53647e-06 0 1.27242e-05 8.53647e-06 1.74482e-05 1.27242e-05 2.40441e-05 0 1.27242e-05 0 1.16584e-05 1.27242e-05 2.40441e-05 1.16584e-05 1.98535e-05 1.74482e-05 2.71772e-05 2.40441e-05 3.30077e-05 2.71772e-05 3.81975e-05 3.30077e-05 3.93093e-05 2.40441e-05 3.30077e-05 1.98535e-05 2.20617e-05 3.30077e-05 3.93093e-05 2.20617e-05 1.71699e-05 0 0 2.18683e-05 3.18969e-05 0 0 3.18969e-05 4.40716e-05 2.18683e-05 3.18969e-05 3.81975e-05 5.08505e-05 3.18969e-05 4.40716e-05 5.08505e-05 6.51225e-05 0 0 4.40716e-05 5.79147e-05 0 0 5.79147e-05 7.25957e-05 4.40716e-05 5.79147e-05 6.51225e-05 8.04983e-05 5.79147e-05 7.25957e-05 8.04983e-05 9.60028e-05 3.81975e-05 5.08505e-05 3.93093e-05 4.31305e-05 5.08505e-05 6.51225e-05 4.31305e-05 4.47556e-05 3.93093e-05 4.31305e-05 1.71699e-05 5.30119e-06 4.31305e-05 4.47556e-05 5.30119e-06 -1.27938e-05 6.51225e-05 8.04983e-05 4.47556e-05 4.42354e-05 8.04983e-05 9.60028e-05 4.42354e-05 4.13401e-05 4.47556e-05 4.42354e-05 -1.27938e-05 -3.63167e-05 4.42354e-05 4.13401e-05 -3.63167e-05 -6.45655e-05 0 0 7.25957e-05 8.708e-05 0 0 8.708e-05 0.000100327 7.25957e-05 8.708e-05 9.60028e-05 0.000110447 8.708e-05 0.000100327 0.000110447 0.000122779 0 0 0.000100327 0.000111463 0 0 0.000111463 0.000119867 0.000100327 0.000111463 0.000122779 0.000132355 0.000111463 0.000119867 0.000132355 0.00013901 9.60028e-05 0.000110447 4.13401e-05 3.58567e-05 0.000110447 0.000122779 3.58567e-05 2.80491e-05 4.13401e-05 3.58567e-05 -6.45655e-05 -9.65554e-05 3.58567e-05 2.80491e-05 -9.65554e-05 -0.00013041 0.000122779 0.000132355 2.80491e-05 1.89647e-05 0.000132355 0.00013901 1.89647e-05 1.03268e-05 2.80491e-05 1.89647e-05 -0.00013041 -0.000163029 1.89647e-05 1.03268e-05 -0.000163029 -0.000190418 0 0 0.000119867 0.000125139 0 0 0.000125139 0.000127001 0.000119867 0.000125139 0.00013901 0.000142853 0.000125139 0.000127001 0.000142853 0.000143938 0 0 0.000127001 0.000125187 0 0 0.000125187 0.000119427 0.000127001 0.000125187 0.000143938 0.000141975 0.000125187 0.000119427 0.000141975 0.000136283 0.00013901 0.000142853 1.03268e-05 3.97626e-06 0.000142853 0.000143938 3.97626e-06 1.10067e-06 1.03268e-05 3.97626e-06 -0.000190418 -0.00020872 3.97626e-06 1.10067e-06 -0.00020872 -0.000215496 0.000143938 0.000141975 1.10067e-06 1.64948e-06 0.000141975 0.000136283 1.64948e-06 4.28134e-06 1.10067e-06 1.64948e-06 -0.000215496 -0.000210634 1.64948e-06 4.28134e-06 -0.000210634 -0.000196347 0 0 0.000119427 0.000109541 0 0 0.000109541 9.5626e-05 0.000119427 0.000109541 0.000136283 0.000126061 0.000109541 9.5626e-05 0.000126061 0.000110876 0 0 9.5626e-05 7.82676e-05 0 0 7.82676e-05 5.86677e-05 9.5626e-05 7.82676e-05 0.000110876 9.11728e-05 7.82676e-05 5.86677e-05 9.11728e-05 6.85511e-05 0.000136283 0.000126061 4.28134e-06 6.93893e-06 0.000126061 0.000110876 6.93893e-06 7.82594e-06 4.28134e-06 6.93893e-06 -0.000196347 -0.000176159 6.93893e-06 7.82594e-06 -0.000176159 -0.000153335 0.000110876 9.11728e-05 7.82594e-06 6.33922e-06 9.11728e-05 6.85511e-05 6.33922e-06 3.50262e-06 7.82594e-06 6.33922e-06 -0.000153335 -0.000129507 6.33922e-06 3.50262e-06 -0.000129507 -0.000104196 0 0 5.86677e-05 3.86097e-05 0 0 3.86097e-05 2.02298e-05 5.86677e-05 3.86097e-05 6.85511e-05 4.56542e-05 3.86097e-05 2.02298e-05 4.56542e-05 2.56451e-05 0 0 2.02298e-05 5.62065e-06 0 0 5.62065e-06 -3.64107e-06 2.02298e-05 5.62065e-06 2.56451e-05 1.13966e-05 5.62065e-06 -3.64107e-06 1.13966e-05 4.63415e-06 6.85511e-05 4.56542e-05 3.50262e-06 1.65884e-06 4.56542e-05 2.56451e-05 1.65884e-06 3.49454e-06 3.50262e-06 1.65884e-06 -0.000104196 -7.55255e-05 1.65884e-06 3.49454e-06 -7.55255e-05 -4.18654e-05 2.56451e-05 1.13966e-05 3.49454e-06 1.07556e-05 1.13966e-05 4.63415e-06 1.07556e-05 2.31452e-05 3.49454e-06 1.07556e-05 -4.18654e-05 -3.67725e-06 1.07556e-05 2.31452e-05 -3.67725e-06 3.52683e-05 0 0 -3.64107e-06 -6.91148e-06 0 0 -6.91148e-06 -4.68006e-06 -3.64107e-06 -6.91148e-06 4.63415e-06 5.31406e-06 -6.91148e-06 -4.68006e-06 5.31406e-06 1.1509e-05 0 0 -4.68006e-06 1.58275e-06 0 0 1.58275e-06 9.97953e-06 -4.68006e-06 1.58275e-06 1.1509e-05 1.99819e-05 1.58275e-06 9.97953e-06 1.99819e-05 2.74375e-05 4.63415e-06 5.31406e-06 2.31452e-05 3.78644e-05 5.31406e-06 1.1509e-05 3.78644e-05 5.00911e-05 2.31452e-05 3.78644e-05 3.52683e-05 6.79593e-05 3.78644e-05 5.00911e-05 6.79593e-05 8.57228e-05 1.1509e-05 1.99819e-05 5.00911e-05 5.44487e-05 1.99819e-05 2.74375e-05 5.44487e-05 4.71959e-05 5.00911e-05 5.44487e-05 8.57228e-05 8.10543e-05 5.44487e-05 4.71959e-05 8.10543e-05 5.09503e-05 0 0 9.97953e-06 1.90183e-05 0 0 1.90183e-05 2.8381e-05 9.97953e-06 1.90183e-05 2.74375e-05 3.21302e-05 1.90183e-05 2.8381e-05 3.21302e-05 3.51312e-05 0 0 2.8381e-05 3.91298e-05 0 0 3.91298e-05 5.29218e-05 2.8381e-05 3.91298e-05 3.51312e-05 4.0332e-05 3.91298e-05 5.29218e-05 4.0332e-05 5.24743e-05 2.74375e-05 3.21302e-05 4.71959e-05 2.84722e-05 3.21302e-05 3.51312e-05 2.84722e-05 3.53718e-06 4.71959e-05 2.84722e-05 5.09503e-05 -4.27003e-07 2.84722e-05 3.53718e-06 -4.27003e-07 -6.12096e-05 3.51312e-05 4.0332e-05 3.53718e-06 -1.82029e-05 4.0332e-05 5.24743e-05 -1.82029e-05 -2.70785e-05 3.53718e-06 -1.82029e-05 -6.12096e-05 -0.000114721 -1.82029e-05 -2.70785e-05 -0.000114721 -0.000146115 0 0 5.29218e-05 7.02354e-05 0 0 7.02354e-05 8.83686e-05 5.29218e-05 7.02354e-05 5.24743e-05 7.34055e-05 7.02354e-05 8.83686e-05 7.34055e-05 9.82515e-05 0 0 8.83686e-05 0.000100711 0 0 0.000100711 9.89131e-05 8.83686e-05 0.000100711 9.82515e-05 0.000114568 0.000100711 9.89131e-05 0.000114568 0.000107495 5.24743e-05 7.34055e-05 -2.70785e-05 -1.9179e-05 7.34055e-05 9.82515e-05 -1.9179e-05 -1.56186e-06 -2.70785e-05 -1.9179e-05 -0.000146115 -0.000150906 -1.9179e-05 -1.56186e-06 -0.000150906 -0.000140731 9.82515e-05 0.000114568 -1.56186e-06 8.03912e-06 0.000114568 0.000107495 8.03912e-06 -9.00604e-06 -1.56186e-06 8.03912e-06 -0.000140731 -0.00013997 8.03912e-06 -9.00604e-06 -0.00013997 -0.000168941 0 0 9.89131e-05 7.84639e-05 0 0 7.84639e-05 4.57724e-05 9.89131e-05 7.84639e-05 0.000107495 7.13359e-05 7.84639e-05 4.57724e-05 7.13359e-05 2.27611e-05 0 0 4.57724e-05 2.21904e-05 0 0 2.21904e-05 3.95371e-05 4.57724e-05 2.21904e-05 2.27611e-05 5.52629e-06 2.21904e-05 3.95371e-05 5.52629e-06 7.57463e-05 0.000107495 7.13359e-05 -9.00604e-06 -5.38645e-05 7.13359e-05 2.27611e-05 -5.38645e-05 -9.28981e-05 -9.00604e-06 -5.38645e-05 -0.000168941 -0.000217706 -5.38645e-05 -9.28981e-05 -0.000217706 -0.000227628 2.27611e-05 5.52629e-06 -9.28981e-05 -5.88931e-05 5.52629e-06 7.57463e-05 -5.88931e-05 0.000112752 -9.28981e-05 -5.88931e-05 -0.000227628 -0.000108191 -5.88931e-05 0.000112752 -0.000108191 0.000189641 0 0 3.95371e-05 0.000124706 0 0 0.000124706 0.000277902 3.95371e-05 0.000124706 7.57463e-05 0.000264938 0.000124706 0.000277902 0.000264938 0.000534581 0 0 0.000277902 0.000456554 0 0 0.000456554 0.000579064 0.000277902 0.000456554 0.000534581 0.000751582 0.000456554 0.000579064 0.000751582 0.000714224 7.57463e-05 0.000264938 0.000112752 0.000414384 0.000264938 0.000534581 0.000414384 0.000696536 0.000112752 0.000414384 0.000189641 0.00055738 0.000414384 0.000696536 0.00055738 0.000642232 0.000534581 0.000751582 0.000696536 0.000657254 0.000751582 0.000714224 0.000657254 -6.4509e-05 0.000696536 0.000657254 0.000642232 -9.86222e-05 0.000657254 -6.4509e-05 -9.86222e-05 -0.00213993 0 0 0.000579064 0.00055482 0 0 0.00055482 0.00033121 0.000579064 0.00055482 0.000714224 0.000234703 0.00055482 0.00033121 0.000234703 -0.000753163 0 0 0.00033121 -6.62873e-05 0 0 -6.62873e-05 -0.000527099 0.00033121 -6.62873e-05 -0.000753163 -0.00211889 -6.62873e-05 -0.000527099 -0.00211889 -0.00354385 0.000714224 0.000234703 -6.4509e-05 -0.00171023 0.000234703 -0.000753163 -0.00171023 -0.00423081 -6.4509e-05 -0.00171023 -0.00213993 -0.00553458 -0.00171023 -0.00423081 -0.00553458 -0.00974077 -0.000753163 -0.00211889 -0.00423081 -0.00723353 -0.00211889 -0.00354385 -0.00723353 -0.0100883 -0.00423081 -0.00723353 -0.00974077 -0.0138369 -0.00723353 -0.0100883 -0.0138369 -0.0170084 0 0 -0.000527099 -0.00089293 0 0 -0.00089293 -0.00102557 -0.000527099 -0.00089293 -0.00354385 -0.00462344 -0.00089293 -0.00102557 -0.00462344 -0.00502228 0 0 -0.00102557 -0.000871228 0 0 -0.000871228 -0.00048657 -0.00102557 -0.000871228 -0.00502228 -0.00461121 -0.000871228 -0.00048657 -0.00461121 -0.00352126 -0.00354385 -0.00462344 -0.0100883 -0.0121351 -0.00462344 -0.00502228 -0.0121351 -0.0128894 -0.0100883 -0.0121351 -0.0170084 -0.0188993 -0.0121351 -0.0128894 -0.0188993 -0.01954 -0.00502228 -0.00461121 -0.0128894 -0.0121738 -0.00461121 -0.00352126 -0.0121738 -0.010161 -0.0128894 -0.0121738 -0.01954 -0.0190007 -0.0121738 -0.010161 -0.0190007 -0.0171965 0 0 -0.00048657 -1.20119e-05 0 0 -1.20119e-05 0.000393079 -0.00048657 -1.20119e-05 -0.00352126 -0.00208902 -1.20119e-05 0.000393079 -0.00208902 -0.00071922 0 0 0.000393079 0.000618304 0 0 0.000618304 0.000639373 0.000393079 0.000618304 -0.00071922 0.00027041 0.000618304 0.000639373 0.00027041 0.000750961 -0.00352126 -0.00208902 -0.010161 -0.00733118 -0.00208902 -0.00071922 -0.00733118 -0.00434107 -0.010161 -0.00733118 -0.0171965 -0.0140851 -0.00733118 -0.00434107 -0.0140851 -0.0100161 -0.00071922 0.00027041 -0.00434107 -0.00181908 0.00027041 0.000750961 -0.00181908 -0.000157891 -0.00434107 -0.00181908 -0.0100161 -0.00580367 -0.00181908 -0.000157891 -0.00580367 -0.0023742 0 0 0.000639373 0.00051065 0 0 0.00051065 0.000324541 0.000639373 0.00051065 0.000750961 0.000790243 0.00051065 0.000324541 0.000790243 0.000577168 0 0 0.000324541 0.000164087 0 0 0.000164087 7.27701e-05 0.000324541 0.000164087 0.000577168 0.00031369 0.000164087 7.27701e-05 0.00031369 0.000132233 0.000750961 0.000790243 -0.000157891 0.000591704 0.000790243 0.000577168 0.000591704 0.000668044 -0.000157891 0.000591704 -0.0023742 -0.00027768 0.000591704 0.000668044 -0.00027768 0.000529584 0.000577168 0.00031369 0.000668044 0.000428017 0.00031369 0.000132233 0.000428017 0.000168896 0.000668044 0.000428017 0.000529584 0.000513975 0.000428017 0.000168896 0.000513975 0.000211737 0 0 7.27701e-05 5.08102e-05 0 0 5.08102e-05 7.14469e-05 7.27701e-05 5.08102e-05 0.000132233 7.00122e-05 5.08102e-05 7.14469e-05 7.00122e-05 9.40134e-05 0 0 7.14469e-05 0.00010294 0 0 0.00010294 0.000124131 7.14469e-05 0.00010294 9.40134e-05 0.000146916 0.00010294 0.000124131 0.000146916 0.000184423 0.000132233 7.00122e-05 0.000168896 3.54288e-05 7.00122e-05 9.40134e-05 3.54288e-05 3.09239e-05 0.000168896 3.54288e-05 0.000211737 -2.9224e-05 3.54288e-05 3.09239e-05 -2.9224e-05 -0.000104392 9.40134e-05 0.000146916 3.09239e-05 8.72186e-05 0.000146916 0.000184423 8.72186e-05 0.000134747 3.09239e-05 8.72186e-05 -0.000104392 -6.66724e-05 8.72186e-05 0.000134747 -6.66724e-05 -1.05651e-05 0 0 0.000124131 0.000128941 0 0 0.000128941 0.000122242 0.000124131 0.000128941 0.000184423 0.000190163 0.000128941 0.000122242 0.000190163 0.000170907 0 0 0.000122242 0.00011256 0 0 0.00011256 0.000106298 0.000122242 0.00011256 0.000170907 0.000143089 0.00011256 0.000106298 0.000143089 0.000120835 0.000184423 0.000190163 0.000134747 0.000139179 0.000190163 0.000170907 0.000139179 0.000103042 0.000134747 0.000139179 -1.05651e-05 1.88423e-06 0.000139179 0.000103042 1.88423e-06 -4.06108e-05 0.000170907 0.000143089 0.000103042 4.85209e-05 0.000143089 0.000120835 4.85209e-05 -1.14461e-06 0.000103042 4.85209e-05 -4.06108e-05 -0.000115357 4.85209e-05 -1.14461e-06 -0.000115357 -0.000190871 0 0 0.000106298 0.000105443 0 0 0.000105443 0.000108314 0.000106298 0.000105443 0.000120835 0.000110386 0.000105443 0.000108314 0.000110386 0.000110597 0 0 0.000108314 0.000111714 0 0 0.000111714 0.000112927 0.000108314 0.000111714 0.000110597 0.000116553 0.000111714 0.000112927 0.000116553 0.000123235 0.000120835 0.000110386 -1.14461e-06 -3.2191e-05 0.000110386 0.000110597 -3.2191e-05 -4.1797e-05 -1.14461e-06 -3.2191e-05 -0.000190871 -0.000244034 -3.2191e-05 -4.1797e-05 -0.000244034 -0.000265451 0.000110597 0.000116553 -4.1797e-05 -3.42619e-05 0.000116553 0.000123235 -3.42619e-05 -1.62501e-05 -4.1797e-05 -3.42619e-05 -0.000265451 -0.000256847 -3.42619e-05 -1.62501e-05 -0.000256847 -0.000225928 0 0 0.000112927 0.000110715 0 0 0.000110715 0.000105285 0.000112927 0.000110715 0.000123235 0.00012755 0.000110715 0.000105285 0.00012755 0.000128532 0 0 0.000105285 9.76218e-05 0 0 9.76218e-05 8.87532e-05 0.000105285 9.76218e-05 0.000128532 0.000126443 9.76218e-05 8.87532e-05 0.000126443 0.000121722 0.000123235 0.00012755 -1.62501e-05 6.30349e-06 0.00012755 0.000128532 6.30349e-06 2.91467e-05 -1.62501e-05 6.30349e-06 -0.000225928 -0.000182214 6.30349e-06 2.91467e-05 -0.000182214 -0.000134745 0.000128532 0.000126443 2.91467e-05 4.93384e-05 0.000126443 0.000121722 4.93384e-05 6.46343e-05 2.91467e-05 4.93384e-05 -0.000134745 -9.10388e-05 4.93384e-05 6.46343e-05 -9.10388e-05 -5.6452e-05 0 0 8.87532e-05 7.93086e-05 0 0 7.93086e-05 6.94984e-05 8.87532e-05 7.93086e-05 0.000121722 0.000114417 7.93086e-05 6.94984e-05 0.000114417 0.000104276 0 0 6.94984e-05 5.93987e-05 0 0 5.93987e-05 4.93075e-05 6.94984e-05 5.93987e-05 0.000104276 9.12493e-05 5.93987e-05 4.93075e-05 9.12493e-05 7.60043e-05 0.000121722 0.000114417 6.46343e-05 7.32896e-05 0.000114417 0.000104276 7.32896e-05 7.43412e-05 6.46343e-05 7.32896e-05 -5.6452e-05 -3.35988e-05 7.32896e-05 7.43412e-05 -3.35988e-05 -2.21138e-05 0.000104276 9.12493e-05 7.43412e-05 6.80188e-05 9.12493e-05 7.60043e-05 6.80188e-05 5.5866e-05 7.43412e-05 6.80188e-05 -2.21138e-05 -1.91706e-05 6.80188e-05 5.5866e-05 -1.91706e-05 -2.08663e-05 0 0 4.93075e-05 3.99454e-05 0 0 3.99454e-05 3.23823e-05 4.93075e-05 3.99454e-05 7.60043e-05 6.0102e-05 3.99454e-05 3.23823e-05 6.0102e-05 4.57058e-05 0 0 3.23823e-05 2.77184e-05 0 0 2.77184e-05 2.66695e-05 3.23823e-05 2.77184e-05 4.57058e-05 3.49517e-05 2.77184e-05 2.66695e-05 3.49517e-05 2.92696e-05 7.60043e-05 6.0102e-05 5.5866e-05 4.03671e-05 6.0102e-05 4.57058e-05 4.03671e-05 2.41982e-05 5.5866e-05 4.03671e-05 -2.08663e-05 -2.40376e-05 4.03671e-05 2.41982e-05 -2.40376e-05 -2.76851e-05 4.57058e-05 3.49517e-05 2.41982e-05 9.46293e-06 3.49517e-05 2.92696e-05 9.46293e-06 -2.71547e-06 2.41982e-05 9.46293e-06 -2.76851e-05 -3.32456e-05 9.46293e-06 -2.71547e-06 -3.32456e-05 -4.34609e-05 0 0 2.66695e-05 2.92449e-05 0 0 2.92449e-05 3.46612e-05 2.66695e-05 2.92449e-05 2.92696e-05 2.89549e-05 2.92449e-05 3.46612e-05 2.89549e-05 3.31492e-05 0 0 3.46612e-05 4.15272e-05 0 0 4.15272e-05 4.82263e-05 3.46612e-05 4.15272e-05 3.31492e-05 4.01923e-05 4.15272e-05 4.82263e-05 4.01923e-05 4.81598e-05 2.92696e-05 2.89549e-05 -2.71547e-06 -1.20756e-05 2.89549e-05 3.31492e-05 -1.20756e-05 -1.87131e-05 -2.71547e-06 -1.20756e-05 -4.34609e-05 -6.03284e-05 -1.20756e-05 -1.87131e-05 -6.03284e-05 -8.31674e-05 3.31492e-05 4.01923e-05 -1.87131e-05 -2.25539e-05 4.01923e-05 4.81598e-05 -2.25539e-05 -2.31695e-05 -1.87131e-05 -2.25539e-05 -8.31674e-05 -0.000107886 -2.25539e-05 -2.31695e-05 -0.000107886 -0.000128011 0 0 4.82263e-05 5.33568e-05 0 0 5.33568e-05 5.609e-05 4.82263e-05 5.33568e-05 4.81598e-05 5.53667e-05 5.33568e-05 5.609e-05 5.53667e-05 6.06998e-05 0 0 5.609e-05 5.63569e-05 0 0 5.63569e-05 5.4837e-05 5.609e-05 5.63569e-05 6.06998e-05 6.37611e-05 5.63569e-05 5.4837e-05 6.37611e-05 6.48808e-05 4.81598e-05 5.53667e-05 -2.31695e-05 -2.00703e-05 5.53667e-05 6.06998e-05 -2.00703e-05 -1.32777e-05 -2.31695e-05 -2.00703e-05 -0.000128011 -0.000137168 -2.00703e-05 -1.32777e-05 -0.000137168 -0.000131931 6.06998e-05 6.37611e-05 -1.32777e-05 -3.76064e-06 6.37611e-05 6.48808e-05 -3.76064e-06 6.6413e-06 -1.32777e-05 -3.76064e-06 -0.000131931 -0.000113641 -3.76064e-06 6.6413e-06 -0.000113641 -8.82446e-05 0 0 5.4837e-05 5.27716e-05 0 0 5.27716e-05 5.16541e-05 5.4837e-05 5.27716e-05 6.48808e-05 6.50496e-05 5.27716e-05 5.16541e-05 6.50496e-05 6.5757e-05 0 0 5.16541e-05 5.28558e-05 0 0 5.28558e-05 5.72653e-05 5.16541e-05 5.28558e-05 6.5757e-05 6.86816e-05 5.28558e-05 5.72653e-05 6.86816e-05 7.52148e-05 6.48808e-05 6.50496e-05 6.6413e-06 1.58817e-05 6.50496e-05 6.5757e-05 1.58817e-05 2.26423e-05 6.6413e-06 1.58817e-05 -8.82446e-05 -6.40756e-05 1.58817e-05 2.26423e-05 -6.40756e-05 -4.85578e-05 6.5757e-05 6.86816e-05 2.26423e-05 2.69939e-05 6.86816e-05 7.52148e-05 2.69939e-05 3.03255e-05 2.26423e-05 2.69939e-05 -4.85578e-05 -4.53503e-05 2.69939e-05 3.03255e-05 -4.53503e-05 -5.32786e-05 0 0 5.72653e-05 6.50249e-05 0 0 6.50249e-05 7.54512e-05 5.72653e-05 6.50249e-05 7.52148e-05 8.5917e-05 6.50249e-05 7.54512e-05 8.5917e-05 0.000100116 0 0 7.54512e-05 8.71867e-05 0 0 8.71867e-05 9.85604e-05 7.54512e-05 8.71867e-05 0.000100116 0.000115885 8.71867e-05 9.85604e-05 0.000115885 0.000130507 7.52148e-05 8.5917e-05 3.03255e-05 3.44824e-05 8.5917e-05 0.000100116 3.44824e-05 4.05225e-05 3.03255e-05 3.44824e-05 -5.32786e-05 -6.75229e-05 3.44824e-05 4.05225e-05 -6.75229e-05 -8.24025e-05 0.000100116 0.000115885 4.05225e-05 4.77836e-05 0.000115885 0.000130507 4.77836e-05 5.38418e-05 4.05225e-05 4.77836e-05 -8.24025e-05 -9.43083e-05 4.77836e-05 5.38418e-05 -9.43083e-05 -0.000103287 0 0 9.85604e-05 0.000108051 0 0 0.000108051 0.00011469 9.85604e-05 0.000108051 0.000130507 0.000141322 0.000108051 0.00011469 0.000141322 0.000146634 0 0 0.00011469 0.000118257 0 0 0.000118257 0.000119191 0.00011469 0.000118257 0.000146634 0.000146291 0.000118257 0.000119191 0.000146291 0.00014166 0.000130507 0.000141322 5.38418e-05 5.54912e-05 0.000141322 0.000146634 5.54912e-05 5.0314e-05 5.38418e-05 5.54912e-05 -0.000103287 -0.000112516 5.54912e-05 5.0314e-05 -0.000112516 -0.000126032 0.000146634 0.000146291 5.0314e-05 3.80597e-05 0.000146291 0.00014166 3.80597e-05 2.11153e-05 5.0314e-05 3.80597e-05 -0.000126032 -0.000145971 3.80597e-05 2.11153e-05 -0.000145971 -0.000170798 0 0 0.000119191 0.00011827 0 0 0.00011827 0.000116203 0.000119191 0.00011827 0.00014166 0.000135014 0.00011827 0.000116203 0.000135014 0.000128579 0 0 0.000116203 0.000113317 0 0 0.000113317 0.00010947 0.000116203 0.000113317 0.000128579 0.000123697 0.000113317 0.00010947 0.000123697 0.00012043 0.00014166 0.000135014 2.11153e-05 3.79254e-06 0.000135014 0.000128579 3.79254e-06 -9.2468e-06 2.11153e-05 3.79254e-06 -0.000170798 -0.000195444 3.79254e-06 -9.2468e-06 -0.000195444 -0.000213209 0.000128579 0.000123697 -9.2468e-06 -1.46917e-05 0.000123697 0.00012043 -1.46917e-05 -1.1644e-05 -9.2468e-06 -1.46917e-05 -0.000213209 -0.000218438 -1.46917e-05 -1.1644e-05 -0.000218438 -0.000208629 0 0 0.00010947 0.000104204 0 0 0.000104204 9.70549e-05 0.00010947 0.000104204 0.00012043 0.000117755 0.000104204 9.70549e-05 0.000117755 0.000114192 0 0 9.70549e-05 8.78543e-05 0 0 8.78543e-05 7.68884e-05 9.70549e-05 8.78543e-05 0.000114192 0.000108521 8.78543e-05 7.68884e-05 0.000108521 0.000100264 0.00012043 0.000117755 -1.1644e-05 -1.63547e-06 0.000117755 0.000114192 -1.63547e-06 1.22747e-05 -1.1644e-05 -1.63547e-06 -0.000208629 -0.000185061 -1.63547e-06 1.22747e-05 -0.000185061 -0.000151869 0.000114192 0.000108521 1.22747e-05 2.67809e-05 0.000108521 0.000100264 2.67809e-05 3.93549e-05 1.22747e-05 2.67809e-05 -0.000151869 -0.000114248 2.67809e-05 3.93549e-05 -0.000114248 -7.6796e-05 0 0 7.68884e-05 6.48508e-05 0 0 6.48508e-05 5.26308e-05 7.68884e-05 6.48508e-05 0.000100264 8.97367e-05 6.48508e-05 5.26308e-05 8.97367e-05 7.77413e-05 0 0 5.26308e-05 4.10437e-05 0 0 4.10437e-05 3.06215e-05 5.26308e-05 4.10437e-05 7.77413e-05 6.51067e-05 4.10437e-05 3.06215e-05 6.51067e-05 5.23433e-05 0.000100264 8.97367e-05 3.93549e-05 4.86176e-05 8.97367e-05 7.77413e-05 4.86176e-05 5.40724e-05 3.93549e-05 4.86176e-05 -7.6796e-05 -4.26979e-05 4.86176e-05 5.40724e-05 -4.26979e-05 -1.38775e-05 7.77413e-05 6.51067e-05 5.40724e-05 5.55486e-05 6.51067e-05 5.23433e-05 5.55486e-05 5.27973e-05 5.40724e-05 5.55486e-05 -1.38775e-05 8.35