# vtk DataFile Version 3.0
#This file was generated by the deal.II library on 2012/5/30 at 14:13:34
ASCII
DATASET UNSTRUCTURED_GRID

POINTS 23040 double
0 0 0
0.25 0 0
0 0.25 0
0.25 0.25 0
0.25 0 0
0.5 0 0
0.25 0.25 0
0.5 0.25 0
0 0.25 0
0.25 0.25 0
0 0.5 0
0.25 0.5 0
0.25 0.25 0
0.5 0.25 0
0.25 0.5 0
0.5 0.5 0
0.5 0 0
0.75 0 0
0.5 0.25 0
0.75 0.25 0
0.75 0 0
1 0 0
0.75 0.25 0
1 0.25 0
0.5 0.25 0
0.75 0.25 0
0.5 0.5 0
0.75 0.5 0
0.75 0.25 0
1 0.25 0
0.75 0.5 0
1 0.5 0
0 0.5 0
0.25 0.5 0
0 0.75 0
0.25 0.75 0
0.25 0.5 0
0.5 0.5 0
0.25 0.75 0
0.5 0.75 0
0 0.75 0
0.25 0.75 0
0 1 0
0.25 1 0
0.25 0.75 0
0.5 0.75 0
0.25 1 0
0.5 1 0
0.5 0.5 0
0.75 0.5 0
0.5 0.75 0
0.75 0.75 0
0.75 0.5 0
1 0.5 0
0.75 0.75 0
1 0.75 0
0.5 0.75 0
0.75 0.75 0
0.5 1 0
0.75 1 0
0.75 0.75 0
1 0.75 0
0.75 1 0
1 1 0
1 0 0
1.25 0 0
1 0.25 0
1.25 0.25 0
1.25 0 0
1.5 0 0
1.25 0.25 0
1.5 0.25 0
1 0.25 0
1.25 0.25 0
1 0.5 0
1.25 0.5 0
1.25 0.25 0
1.5 0.25 0
1.25 0.5 0
1.5 0.5 0
1.5 0 0
1.75 0 0
1.5 0.25 0
1.75 0.25 0
1.75 0 0
2 0 0
1.75 0.25 0
2 0.25 0
1.5 0.25 0
1.75 0.25 0
1.5 0.5 0
1.75 0.5 0
1.75 0.25 0
2 0.25 0
1.75 0.5 0
2 0.5 0
1 0.5 0
1.25 0.5 0
1 0.75 0
1.25 0.75 0
1.25 0.5 0
1.5 0.5 0
1.25 0.75 0
1.5 0.75 0
1 0.75 0
1.25 0.75 0
1 1 0
1.25 1 0
1.25 0.75 0
1.5 0.75 0
1.25 1 0
1.5 1 0
1.5 0.5 0
1.75 0.5 0
1.5 0.75 0
1.75 0.75 0
1.75 0.5 0
2 0.5 0
1.75 0.75 0
2 0.75 0
1.5 0.75 0
1.75 0.75 0
1.5 1 0
1.75 1 0
1.75 0.75 0
2 0.75 0
1.75 1 0
2 1 0
2 0 0
2.25 0 0
2 0.25 0
2.25 0.25 0
2.25 0 0
2.5 0 0
2.25 0.25 0
2.5 0.25 0
2 0.25 0
2.25 0.25 0
2 0.5 0
2.25 0.5 0
2.25 0.25 0
2.5 0.25 0
2.25 0.5 0
2.5 0.5 0
2.5 0 0
2.75 0 0
2.5 0.25 0
2.75 0.25 0
2.75 0 0
3 0 0
2.75 0.25 0
3 0.25 0
2.5 0.25 0
2.75 0.25 0
2.5 0.5 0
2.75 0.5 0
2.75 0.25 0
3 0.25 0
2.75 0.5 0
3 0.5 0
2 0.5 0
2.25 0.5 0
2 0.75 0
2.25 0.75 0
2.25 0.5 0
2.5 0.5 0
2.25 0.75 0
2.5 0.75 0
2 0.75 0
2.25 0.75 0
2 1 0
2.25 1 0
2.25 0.75 0
2.5 0.75 0
2.25 1 0
2.5 1 0
2.5 0.5 0
2.75 0.5 0
2.5 0.75 0
2.75 0.75 0
2.75 0.5 0
3 0.5 0
2.75 0.75 0
3 0.75 0
2.5 0.75 0
2.75 0.75 0
2.5 1 0
2.75 1 0
2.75 0.75 0
3 0.75 0
2.75 1 0
3 1 0
3 0 0
3.25 0 0
3 0.25 0
3.25 0.25 0
3.25 0 0
3.5 0 0
3.25 0.25 0
3.5 0.25 0
3 0.25 0
3.25 0.25 0
3 0.5 0
3.25 0.5 0
3.25 0.25 0
3.5 0.25 0
3.25 0.5 0
3.5 0.5 0
3.5 0 0
3.75 0 0
3.5 0.25 0
3.75 0.25 0
3.75 0 0
4 0 0
3.75 0.25 0
4 0.25 0
3.5 0.25 0
3.75 0.25 0
3.5 0.5 0
3.75 0.5 0
3.75 0.25 0
4 0.25 0
3.75 0.5 0
4 0.5 0
3 0.5 0
3.25 0.5 0
3 0.75 0
3.25 0.75 0
3.25 0.5 0
3.5 0.5 0
3.25 0.75 0
3.5 0.75 0
3 0.75 0
3.25 0.75 0
3 1 0
3.25 1 0
3.25 0.75 0
3.5 0.75 0
3.25 1 0
3.5 1 0
3.5 0.5 0
3.75 0.5 0
3.5 0.75 0
3.75 0.75 0
3.75 0.5 0
4 0.5 0
3.75 0.75 0
4 0.75 0
3.5 0.75 0
3.75 0.75 0
3.5 1 0
3.75 1 0
3.75 0.75 0
4 0.75 0
3.75 1 0
4 1 0
4 0 0
4.25 0 0
4 0.25 0
4.25 0.25 0
4.25 0 0
4.5 0 0
4.25 0.25 0
4.5 0.25 0
4 0.25 0
4.25 0.25 0
4 0.5 0
4.25 0.5 0
4.25 0.25 0
4.5 0.25 0
4.25 0.5 0
4.5 0.5 0
4.5 0 0
4.75 0 0
4.5 0.25 0
4.75 0.25 0
4.75 0 0
5 0 0
4.75 0.25 0
5 0.25 0
4.5 0.25 0
4.75 0.25 0
4.5 0.5 0
4.75 0.5 0
4.75 0.25 0
5 0.25 0
4.75 0.5 0
5 0.5 0
4 0.5 0
4.25 0.5 0
4 0.75 0
4.25 0.75 0
4.25 0.5 0
4.5 0.5 0
4.25 0.75 0
4.5 0.75 0
4 0.75 0
4.25 0.75 0
4 1 0
4.25 1 0
4.25 0.75 0
4.5 0.75 0
4.25 1 0
4.5 1 0
4.5 0.5 0
4.75 0.5 0
4.5 0.75 0
4.75 0.75 0
4.75 0.5 0
5 0.5 0
4.75 0.75 0
5 0.75 0
4.5 0.75 0
4.75 0.75 0
4.5 1 0
4.75 1 0
4.75 0.75 0
5 0.75 0
4.75 1 0
5 1 0
5 0 0
5.25 0 0
5 0.25 0
5.25 0.25 0
5.25 0 0
5.5 0 0
5.25 0.25 0
5.5 0.25 0
5 0.25 0
5.25 0.25 0
5 0.5 0
5.25 0.5 0
5.25 0.25 0
5.5 0.25 0
5.25 0.5 0
5.5 0.5 0
5.5 0 0
5.75 0 0
5.5 0.25 0
5.75 0.25 0
5.75 0 0
6 0 0
5.75 0.25 0
6 0.25 0
5.5 0.25 0
5.75 0.25 0
5.5 0.5 0
5.75 0.5 0
5.75 0.25 0
6 0.25 0
5.75 0.5 0
6 0.5 0
5 0.5 0
5.25 0.5 0
5 0.75 0
5.25 0.75 0
5.25 0.5 0
5.5 0.5 0
5.25 0.75 0
5.5 0.75 0
5 0.75 0
5.25 0.75 0
5 1 0
5.25 1 0
5.25 0.75 0
5.5 0.75 0
5.25 1 0
5.5 1 0
5.5 0.5 0
5.75 0.5 0
5.5 0.75 0
5.75 0.75 0
5.75 0.5 0
6 0.5 0
5.75 0.75 0
6 0.75 0
5.5 0.75 0
5.75 0.75 0
5.5 1 0
5.75 1 0
5.75 0.75 0
6 0.75 0
5.75 1 0
6 1 0
6 0 0
6.25 0 0
6 0.25 0
6.25 0.25 0
6.25 0 0
6.5 0 0
6.25 0.25 0
6.5 0.25 0
6 0.25 0
6.25 0.25 0
6 0.5 0
6.25 0.5 0
6.25 0.25 0
6.5 0.25 0
6.25 0.5 0
6.5 0.5 0
6.5 0 0
6.75 0 0
6.5 0.25 0
6.75 0.25 0
6.75 0 0
7 0 0
6.75 0.25 0
7 0.25 0
6.5 0.25 0
6.75 0.25 0
6.5 0.5 0
6.75 0.5 0
6.75 0.25 0
7 0.25 0
6.75 0.5 0
7 0.5 0
6 0.5 0
6.25 0.5 0
6 0.75 0
6.25 0.75 0
6.25 0.5 0
6.5 0.5 0
6.25 0.75 0
6.5 0.75 0
6 0.75 0
6.25 0.75 0
6 1 0
6.25 1 0
6.25 0.75 0
6.5 0.75 0
6.25 1 0
6.5 1 0
6.5 0.5 0
6.75 0.5 0
6.5 0.75 0
6.75 0.75 0
6.75 0.5 0
7 0.5 0
6.75 0.75 0
7 0.75 0
6.5 0.75 0
6.75 0.75 0
6.5 1 0
6.75 1 0
6.75 0.75 0
7 0.75 0
6.75 1 0
7 1 0
7 0 0
7.25 0 0
7 0.25 0
7.25 0.25 0
7.25 0 0
7.5 0 0
7.25 0.25 0
7.5 0.25 0
7 0.25 0
7.25 0.25 0
7 0.5 0
7.25 0.5 0
7.25 0.25 0
7.5 0.25 0
7.25 0.5 0
7.5 0.5 0
7.5 0 0
7.75 0 0
7.5 0.25 0
7.75 0.25 0
7.75 0 0
8 0 0
7.75 0.25 0
8 0.25 0
7.5 0.25 0
7.75 0.25 0
7.5 0.5 0
7.75 0.5 0
7.75 0.25 0
8 0.25 0
7.75 0.5 0
8 0.5 0
7 0.5 0
7.25 0.5 0
7 0.75 0
7.25 0.75 0
7.25 0.5 0
7.5 0.5 0
7.25 0.75 0
7.5 0.75 0
7 0.75 0
7.25 0.75 0
7 1 0
7.25 1 0
7.25 0.75 0
7.5 0.75 0
7.25 1 0
7.5 1 0
7.5 0.5 0
7.75 0.5 0
7.5 0.75 0
7.75 0.75 0
7.75 0.5 0
8 0.5 0
7.75 0.75 0
8 0.75 0
7.5 0.75 0
7.75 0.75 0
7.5 1 0
7.75 1 0
7.75 0.75 0
8 0.75 0
7.75 1 0
8 1 0
8 0 0
8.25 0 0
8 0.25 0
8.25 0.25 0
8.25 0 0
8.5 0 0
8.25 0.25 0
8.5 0.25 0
8 0.25 0
8.25 0.25 0
8 0.5 0
8.25 0.5 0
8.25 0.25 0
8.5 0.25 0
8.25 0.5 0
8.5 0.5 0
8.5 0 0
8.75 0 0
8.5 0.25 0
8.75 0.25 0
8.75 0 0
9 0 0
8.75 0.25 0
9 0.25 0
8.5 0.25 0
8.75 0.25 0
8.5 0.5 0
8.75 0.5 0
8.75 0.25 0
9 0.25 0
8.75 0.5 0
9 0.5 0
8 0.5 0
8.25 0.5 0
8 0.75 0
8.25 0.75 0
8.25 0.5 0
8.5 0.5 0
8.25 0.75 0
8.5 0.75 0
8 0.75 0
8.25 0.75 0
8 1 0
8.25 1 0
8.25 0.75 0
8.5 0.75 0
8.25 1 0
8.5 1 0
8.5 0.5 0
8.75 0.5 0
8.5 0.75 0
8.75 0.75 0
8.75 0.5 0
9 0.5 0
8.75 0.75 0
9 0.75 0
8.5 0.75 0
8.75 0.75 0
8.5 1 0
8.75 1 0
8.75 0.75 0
9 0.75 0
8.75 1 0
9 1 0
9 0 0
9.25 0 0
9 0.25 0
9.25 0.25 0
9.25 0 0
9.5 0 0
9.25 0.25 0
9.5 0.25 0
9 0.25 0
9.25 0.25 0
9 0.5 0
9.25 0.5 0
9.25 0.25 0
9.5 0.25 0
9.25 0.5 0
9.5 0.5 0
9.5 0 0
9.75 0 0
9.5 0.25 0
9.75 0.25 0
9.75 0 0
10 0 0
9.75 0.25 0
10 0.25 0
9.5 0.25 0
9.75 0.25 0
9.5 0.5 0
9.75 0.5 0
9.75 0.25 0
10 0.25 0
9.75 0.5 0
10 0.5 0
9 0.5 0
9.25 0.5 0
9 0.75 0
9.25 0.75 0
9.25 0.5 0
9.5 0.5 0
9.25 0.75 0
9.5 0.75 0
9 0.75 0
9.25 0.75 0
9 1 0
9.25 1 0
9.25 0.75 0
9.5 0.75 0
9.25 1 0
9.5 1 0
9.5 0.5 0
9.75 0.5 0
9.5 0.75 0
9.75 0.75 0
9.75 0.5 0
10 0.5 0
9.75 0.75 0
10 0.75 0
9.5 0.75 0
9.75 0.75 0
9.5 1 0
9.75 1 0
9.75 0.75 0
10 0.75 0
9.75 1 0
10 1 0
10 0 0
10.25 0 0
10 0.25 0
10.25 0.25 0
10.25 0 0
10.5 0 0
10.25 0.25 0
10.5 0.25 0
10 0.25 0
10.25 0.25 0
10 0.5 0
10.25 0.5 0
10.25 0.25 0
10.5 0.25 0
10.25 0.5 0
10.5 0.5 0
10.5 0 0
10.75 0 0
10.5 0.25 0
10.75 0.25 0
10.75 0 0
11 0 0
10.75 0.25 0
11 0.25 0
10.5 0.25 0
10.75 0.25 0
10.5 0.5 0
10.75 0.5 0
10.75 0.25 0
11 0.25 0
10.75 0.5 0
11 0.5 0
10 0.5 0
10.25 0.5 0
10 0.75 0
10.25 0.75 0
10.25 0.5 0
10.5 0.5 0
10.25 0.75 0
10.5 0.75 0
10 0.75 0
10.25 0.75 0
10 1 0
10.25 1 0
10.25 0.75 0
10.5 0.75 0
10.25 1 0
10.5 1 0
10.5 0.5 0
10.75 0.5 0
10.5 0.75 0
10.75 0.75 0
10.75 0.5 0
11 0.5 0
10.75 0.75 0
11 0.75 0
10.5 0.75 0
10.75 0.75 0
10.5 1 0
10.75 1 0
10.75 0.75 0
11 0.75 0
10.75 1 0
11 1 0
11 0 0
11.25 0 0
11 0.25 0
11.25 0.25 0
11.25 0 0
11.5 0 0
11.25 0.25 0
11.5 0.25 0
11 0.25 0
11.25 0.25 0
11 0.5 0
11.25 0.5 0
11.25 0.25 0
11.5 0.25 0
11.25 0.5 0
11.5 0.5 0
11.5 0 0
11.75 0 0
11.5 0.25 0
11.75 0.25 0
11.75 0 0
12 0 0
11.75 0.25 0
12 0.25 0
11.5 0.25 0
11.75 0.25 0
11.5 0.5 0
11.75 0.5 0
11.75 0.25 0
12 0.25 0
11.75 0.5 0
12 0.5 0
11 0.5 0
11.25 0.5 0
11 0.75 0
11.25 0.75 0
11.25 0.5 0
11.5 0.5 0
11.25 0.75 0
11.5 0.75 0
11 0.75 0
11.25 0.75 0
11 1 0
11.25 1 0
11.25 0.75 0
11.5 0.75 0
11.25 1 0
11.5 1 0
11.5 0.5 0
11.75 0.5 0
11.5 0.75 0
11.75 0.75 0
11.75 0.5 0
12 0.5 0
11.75 0.75 0
12 0.75 0
11.5 0.75 0
11.75 0.75 0
11.5 1 0
11.75 1 0
11.75 0.75 0
12 0.75 0
11.75 1 0
12 1 0
12 0 0
12.25 0 0
12 0.25 0
12.25 0.25 0
12.25 0 0
12.5 0 0
12.25 0.25 0
12.5 0.25 0
12 0.25 0
12.25 0.25 0
12 0.5 0
12.25 0.5 0
12.25 0.25 0
12.5 0.25 0
12.25 0.5 0
12.5 0.5 0
12.5 0 0
12.75 0 0
12.5 0.25 0
12.75 0.25 0
12.75 0 0
13 0 0
12.75 0.25 0
13 0.25 0
12.5 0.25 0
12.75 0.25 0
12.5 0.5 0
12.75 0.5 0
12.75 0.25 0
13 0.25 0
12.75 0.5 0
13 0.5 0
12 0.5 0
12.25 0.5 0
12 0.75 0
12.25 0.75 0
12.25 0.5 0
12.5 0.5 0
12.25 0.75 0
12.5 0.75 0
12 0.75 0
12.25 0.75 0
12 1 0
12.25 1 0
12.25 0.75 0
12.5 0.75 0
12.25 1 0
12.5 1 0
12.5 0.5 0
12.75 0.5 0
12.5 0.75 0
12.75 0.75 0
12.75 0.5 0
13 0.5 0
12.75 0.75 0
13 0.75 0
12.5 0.75 0
12.75 0.75 0
12.5 1 0
12.75 1 0
12.75 0.75 0
13 0.75 0
12.75 1 0
13 1 0
13 0 0
13.25 0 0
13 0.25 0
13.25 0.25 0
13.25 0 0
13.5 0 0
13.25 0.25 0
13.5 0.25 0
13 0.25 0
13.25 0.25 0
13 0.5 0
13.25 0.5 0
13.25 0.25 0
13.5 0.25 0
13.25 0.5 0
13.5 0.5 0
13.5 0 0
13.75 0 0
13.5 0.25 0
13.75 0.25 0
13.75 0 0
14 0 0
13.75 0.25 0
14 0.25 0
13.5 0.25 0
13.75 0.25 0
13.5 0.5 0
13.75 0.5 0
13.75 0.25 0
14 0.25 0
13.75 0.5 0
14 0.5 0
13 0.5 0
13.25 0.5 0
13 0.75 0
13.25 0.75 0
13.25 0.5 0
13.5 0.5 0
13.25 0.75 0
13.5 0.75 0
13 0.75 0
13.25 0.75 0
13 1 0
13.25 1 0
13.25 0.75 0
13.5 0.75 0
13.25 1 0
13.5 1 0
13.5 0.5 0
13.75 0.5 0
13.5 0.75 0
13.75 0.75 0
13.75 0.5 0
14 0.5 0
13.75 0.75 0
14 0.75 0
13.5 0.75 0
13.75 0.75 0
13.5 1 0
13.75 1 0
13.75 0.75 0
14 0.75 0
13.75 1 0
14 1 0
14 0 0
14.25 0 0
14 0.25 0
14.25 0.25 0
14.25 0 0
14.5 0 0
14.25 0.25 0
14.5 0.25 0
14 0.25 0
14.25 0.25 0
14 0.5 0
14.25 0.5 0
14.25 0.25 0
14.5 0.25 0
14.25 0.5 0
14.5 0.5 0
14.5 0 0
14.75 0 0
14.5 0.25 0
14.75 0.25 0
14.75 0 0
15 0 0
14.75 0.25 0
15 0.25 0
14.5 0.25 0
14.75 0.25 0
14.5 0.5 0
14.75 0.5 0
14.75 0.25 0
15 0.25 0
14.75 0.5 0
15 0.5 0
14 0.5 0
14.25 0.5 0
14 0.75 0
14.25 0.75 0
14.25 0.5 0
14.5 0.5 0
14.25 0.75 0
14.5 0.75 0
14 0.75 0
14.25 0.75 0
14 1 0
14.25 1 0
14.25 0.75 0
14.5 0.75 0
14.25 1 0
14.5 1 0
14.5 0.5 0
14.75 0.5 0
14.5 0.75 0
14.75 0.75 0
14.75 0.5 0
15 0.5 0
14.75 0.75 0
15 0.75 0
[...]
POINT_DATA 23040
SCALARS State_OptProblem double 1
LOOKUP_TABLE default
0 0 0 0.000586541 0 0 0.000586541 0.00116036 0 0.000586541 0 0.0011789 0.000586541 0.00116036 0.0011789 0.00232595 0 0 0.00116036 0.00170944 0 0 0.00170944 0.00222308 0.00116036 0.00170944 0.00232595 0.00341165 0.00170944 0.00222308 0.00341165 0.00441069 0 0.0011789 0 0.00176454 0.0011789 0.00232595 0.00176454 0.00346587 0 0.00176454 0 0.00229848 0.00176454 0.00346587 0.00229848 0.00448548 0.00232595 0.00341165 0.00346587 0.00504644 0.00341165 0.00441069 0.00504644 0.00645906 0.00346587 0.00504644 0.00448548 0.00646106 0.00504644 0.00645906 0.00646106 0.0081465 0 0 0.00222308 0.00269219 0 0 0.00269219 0.00310936 0.00222308 0.00269219 0.00441069 0.00530319 0.00269219 0.00310936 0.00530319 0.00607503 0 0 0.00310936 0.00346866 0 0 0.00346866 0.00376533 0.00310936 0.00346866 0.00607503 0.00671738 0.00346866 0.00376533 0.00671738 0.0072258 0.00441069 0.00530319 0.00645906 0.00767002 0.00530319 0.00607503 0.00767002 0.00866011 0.00645906 0.00767002 0.0081465 0.00949064 0.00767002 0.00866011 0.00949064 0.0104723 0.00607503 0.00671738 0.00866011 0.00942383 0.00671738 0.0072258 0.00942383 0.00996711 0.00866011 0.00942383 0.0104723 0.0110986 0.00942383 0.00996711 0.0110986 0.0114005 0 0 0.00376533 0.00399552 0 0 0.00399552 0.00415613 0.00376533 0.00399552 0.0072258 0.00759909 0.00399552 0.00415613 0.00759909 0.00783833 0 0 0.00415613 0.00424495 0 0 0.00424495 0.0042611 0.00415613 0.00424495 0.00783833 0.00794647 0.00424495 0.0042611 0.00794647 0.00792834 0.0072258 0.00759909 0.00996711 0.0103042 0.00759909 0.00783833 0.0103042 0.0104549 0.00996711 0.0103042 0.0114005 0.0114265 0.0103042 0.0104549 0.0114265 0.0112349 0.00783833 0.00794647 0.0104549 0.0104413 0.00794647 0.00792834 0.0104413 0.0102871 0.0104549 0.0104413 0.0112349 0.0108881 0.0104413 0.0102871 0.0108881 0.0104461 0 0 0.0042611 0.00420557 0 0 0.00420557 0.0040819 0.0042611 0.00420557 0.00792834 0.00779122 0.00420557 0.0040819 0.00779122 0.00754561 0 0 0.0040819 0.00389661 0 0 0.00389661 0.0036594 0.0040819 0.00389661 0.00754561 0.00720589 0.00389661 0.0036594 0.00720589 0.00679048 0.00792834 0.00779122 0.0102871 0.010016 0.00779122 0.00754561 0.010016 0.00965197 0.0102871 0.010016 0.0104461 0.00996372 0.010016 0.00965197 0.00996372 0.00948724 0.00754561 0.00720589 0.00965197 0.00921958 0.00720589 0.00679048 0.00921958 0.00874374 0.00965197 0.00921958 0.00948724 0.00905393 0.00921958 0.00874374 0.00905393 0.00869138 0 0 0.0036594 0.00338275 0 0 0.00338275 0.00308108 0.0036594 0.00338275 0.00679048 0.00632121 0.00338275 0.00308108 0.00632121 0.00582194 0 0 0.00308108 0.00276954 0 0 0.00276954 0.00246246 0.00308108 0.00276954 0.00582194 0.00531633 0.00276954 0.00246246 0.00531633 0.00482541 0.00679048 0.00632121 0.00874374 0.00824925 0.00632121 0.00582194 0.00824925 0.00775917 0.00874374 0.00824925 0.00869138 0.00841724 0.00824925 0.00775917 0.00841724 0.00823854 0.00582194 0.00531633 0.00775917 0.00729261 0.00531633 0.00482541 0.00729261 0.00686215 0.00775917 0.00729261 0.00823854 0.00815055 0.00729261 0.00686215 0.00815055 0.00813549 0 0 0.00246246 0.00217202 0 0 0.00217202 0.00190729 0.00246246 0.00217202 0.00482541 0.00436535 0.00217202 0.00190729 0.00436535 0.00394608 0 0 0.00190729 0.00167394 0 0 0.00167394 0.00147491 0.00190729 0.00167394 0.00394608 0.0035714 0.00167394 0.00147491 0.0035714 0.00324079 0.00482541 0.00436535 0.00686215 0.00647179 0.00436535 0.00394608 0.00647179 0.00611629 0.00686215 0.00647179 0.00813549 0.00816211 0.00647179 0.00611629 0.00816211 0.00818714 0.00394608 0.0035714 0.00611629 0.00578275 0.0035714 0.00324079 0.00578275 0.00545474 0.00611629 0.00578275 0.00818714 0.00815985 0.00578275 0.00545474 0.00815985 0.00803012 0 0 0.00147491 0.00131177 0 0 0.00131177 0.0011868 0.00147491 0.00131177 0.00324079 0.00295283 0.00131177 0.0011868 0.00295283 0.00270965 0 0 0.0011868 0.00110509 0 0 0.00110509 0.00107607 0.0011868 0.00110509 0.00270965 0.00252144 0.00110509 0.00107607 0.00252144 0.00240963 0.00324079 0.00295283 0.00545474 0.00511878 0.00295283 0.00270965 0.00511878 0.00477214 0.00545474 0.00511878 0.00803012 0.00775952 0.00511878 0.00477214 0.00775952 0.00733377 0.00270965 0.00252144 0.00477214 0.00443029 0.00252144 0.00240963 0.00443029 0.00413165 0.00477214 0.00443029 0.00733377 0.00677394 0.00443029 0.00413165 0.00677394 0.00614297 0 0 0.00107607 0.00111387 0 0 0.00111387 0.00123565 0.00107607 0.00111387 0.00240963 0.00240722 0.00111387 0.00123565 0.00240722 0.00255505 0 0 0.00123565 0.00145766 0 0 0.00145766 0.00178902 0.00123565 0.00145766 0.00255505 0.00289319 0.00145766 0.00178902 0.00289319 0.00344763 0.00240963 0.00240722 0.00413165 0.0039376 0.00240722 0.00255505 0.0039376 0.00392555 0.00413165 0.0039376 0.00614297 0.0055445 0.0039376 0.00392555 0.0055445 0.00511128 0.00255505 0.00289319 0.00392555 0.00417429 0.00289319 0.00344763 0.00417429 0.00474197 0.00392555 0.00417429 0.00511128 0.00498228 0.00417429 0.00474197 0.00498228 0.00526956 0 0 0.00178902 0.00222384 0 0 0.00222384 0.00273322 0.00178902 0.00222384 0.00344763 0.00421374 0.00222384 0.00273322 0.00421374 0.00513948 0 0 0.00273322 0.00325904 0 0 0.00325904 0.00371237 0.00273322 0.00325904 0.00513948 0.0061126 0.00325904 0.00371237 0.0061126 0.00695751 0.00344763 0.00421374 0.00474197 0.00563918 0.00421374 0.00513948 0.00563918 0.00680209 0.00474197 0.00563918 0.00526956 0.00601879 0.00563918 0.00680209 0.00601879 0.00717031 0.00513948 0.0061126 0.00680209 0.00807227 0.0061126 0.00695751 0.00807227 0.00919201 0.00680209 0.00807227 0.00717031 0.00853077 0.00807227 0.00919201 0.00853077 0.00976713 0 0 0.00371237 0.00397889 0 0 0.00397889 0.00393317 0.00371237 0.00397889 0.00695751 0.00744676 0.00397889 0.00393317 0.00744676 0.00733128 0 0 0.00393317 0.0034618 0 0 0.0034618 0.00249231 0.00393317 0.0034618 0.00733128 0.00638902 0.0034618 0.00249231 0.00638902 0.00448607 0.00695751 0.00744676 0.00919201 0.00982344 0.00744676 0.00733128 0.00982344 0.00959751 0.00919201 0.00982344 0.00976713 0.0104353 0.00982344 0.00959751 0.0104353 0.0100522 0.00733128 0.00638902 0.00959751 0.00819312 0.00638902 0.00448607 0.00819312 0.00543692 0.00959751 0.00819312 0.0100522 0.00821196 0.00819312 0.00543692 0.00821196 0.004734 0 0 0.00249231 0.00102159 0 0 0.00102159 -0.000865564 0.00249231 0.00102159 0.00448607 0.00163688 0.00102159 -0.000865564 0.00163688 -0.00195704 0 0 -0.000865564 -0.00299817 0 0 -0.00299817 -0.00514744 -0.000865564 -0.00299817 -0.00195704 -0.00591308 -0.00299817 -0.00514744 -0.00591308 -0.00973463 0.00448607 0.00163688 0.00543692 0.00140237 0.00163688 -0.00195704 0.00140237 -0.0035266 0.00543692 0.00140237 0.004734 -0.000188019 0.00140237 -0.0035266 -0.000188019 -0.00588763 -0.00195704 -0.00591308 -0.0035266 -0.00866858 -0.00591308 -0.00973463 -0.00866858 -0.0131689 -0.0035266 -0.00866858 -0.00588763 -0.0112441 -0.00866858 -0.0131689 -0.0112441 -0.014883 0 0 -0.00514744 -0.00707961 0 0 -0.00707961 -0.00861816 -0.00514744 -0.00707961 -0.00973463 -0.0129361 -0.00707961 -0.00861816 -0.0129361 -0.0151921 0 0 -0.00861816 -0.00969061 0 0 -0.00969061 -0.0103357 -0.00861816 -0.00969061 -0.0151921 -0.0164486 -0.00969061 -0.0103357 -0.0164486 -0.0169331 -0.00973463 -0.0129361 -0.0131689 -0.0162371 -0.0129361 -0.0151921 -0.0162371 -0.0174405 -0.0131689 -0.0162371 -0.014883 -0.0155845 -0.0162371 -0.0174405 -0.0155845 -0.0128253 -0.0151921 -0.0164486 -0.0174405 -0.01693 -0.0164486 -0.0169331 -0.01693 -0.015454 -0.0174405 -0.01693 -0.0128253 -0.00723414 -0.01693 -0.015454 -0.00723414 -0.000648624 0 0 -0.0103357 -0.0106626 0 0 -0.0106626 -0.0107781 -0.0103357 -0.0106626 -0.0169331 -0.0170372 -0.0106626 -0.0107781 -0.0170372 -0.0171122 0 0 -0.0107781 -0.0107179 0 0 -0.0107179 -0.0104204 -0.0107781 -0.0107179 -0.0171122 -0.0172785 -0.0107179 -0.0104204 -0.0172785 -0.0173493 -0.0169331 -0.0170372 -0.015454 -0.0140865 -0.0170372 -0.0171122 -0.0140865 -0.0137525 -0.015454 -0.0140865 -0.000648624 0.00443319 -0.0140865 -0.0137525 0.00443319 0.00587656 -0.0171122 -0.0172785 -0.0137525 -0.014775 -0.0172785 -0.0173493 -0.014775 -0.016695 -0.0137525 -0.014775 0.00587656 0.00291533 -0.014775 -0.016695 0.00291533 -0.00343793 0 0 -0.0104204 -0.00975627 0 0 -0.00975627 -0.00859958 -0.0104204 -0.00975627 -0.0173493 -0.0169149 -0.00975627 -0.00859958 -0.0169149 -0.0155413 0 0 -0.00859958 -0.00690297 0 0 -0.00690297 -0.00473965 -0.00859958 -0.00690297 -0.0155413 -0.0129789 -0.00690297 -0.00473965 -0.0129789 -0.00928402 -0.0173493 -0.0169149 -0.016695 -0.0184687 -0.0169149 -0.0155413 -0.0184687 -0.0189351 -0.016695 -0.0184687 -0.00343793 -0.0108334 -0.0184687 -0.0189351 -0.0108334 -0.0166165 -0.0155413 -0.0129789 -0.0189351 -0.0173021 -0.0129789 -0.00928402 -0.0173021 -0.013424 -0.0189351 -0.0173021 -0.0166165 -0.018872 -0.0173021 -0.013424 -0.018872 -0.016982 0 0 -0.00473965 -0.00229623 0 0 -0.00229623 0.000175268 -0.00473965 -0.00229623 -0.00928402 -0.00480808 -0.00229623 0.000175268 -0.00480808 -8.35138e-05 0 0 0.000175268 0.00242193 0 0 0.00242193 0.00424591 0.000175268 0.00242193 -8.35138e-05 0.00433139 0.00242193 0.00424591 0.00433139 0.00798545 -0.00928402 -0.00480808 -0.013424 -0.00778692 -0.00480808 -8.35138e-05 -0.00778692 -0.00127692 -0.013424 -0.00778692 -0.016982 -0.0115677 -0.00778692 -0.00127692 -0.0115677 -0.00402127 -8.35138e-05 0.00433139 -0.00127692 0.00512623 0.00433139 0.00798545 0.00512623 0.0106024 -0.00127692 0.00512623 -0.00402127 0.00405854 0.00512623 0.0106024 0.00405854 0.0113033 0 0 0.00424591 0.0055364 0 0 0.0055364 0.00627473 0.00424591 0.0055364 0.00798545 0.0106107 0.0055364 0.00627473 0.0106107 0.0121368 0 0 0.00627473 0.00651858 0 0 0.00651858 0.00637515 0.00627473 0.00651858 0.0121368 0.0126595 0.00651858 0.00637515 0.0126595 0.0123842 0.00798545 0.0106107 0.0106024 0.0146332 0.0106107 0.0121368 0.0146332 0.0170318 0.0106024 0.0146332 0.0113033 0.0168066 0.0146332 0.0170318 0.0168066 0.0201727 0.0121368 0.0126595 0.0170318 0.0178933 0.0126595 0.0123842 0.0178933 0.0175043 0.0170318 0.0178933 0.0201727 0.0214418 0.0178933 0.0175043 0.0214418 0.0209567 0 0 0.00637515 0.00597244 0 0 0.00597244 0.00543495 0.00637515 0.00597244 0.0123842 0.0115663 0.00597244 0.00543495 0.0115663 0.0104595 0 0 0.00543495 0.00486699 0 0 0.00486699 0.00434412 0.00543495 0.00486699 0.0104595 0.00928046 0.00486699 0.00434412 0.00928046 0.00818949 0.0123842 0.0115663 0.0175043 0.0162456 0.0115663 0.0104595 0.0162456 0.0145088 0.0175043 0.0162456 0.0209567 0.0192203 0.0162456 0.0145088 0.0192203 0.0167734 0.0104595 0.00928046 0.0145088 0.012638 0.00928046 0.00818949 0.012638 0.0108959 0.0145088 0.012638 0.0167734 0.0141068 0.012638 0.0108959 0.0141068 0.0116095 0 0 0.00434412 0.00391142 0 0 0.00391142 0.00358666 0.00434412 0.00391142 0.00818949 0.00728588 0.00391142 0.00358666 0.00728588 0.00661275 0 0 0.00358666 0.00336625 0 0 0.00336625 0.00323215 0.00358666 0.00336625 0.00661275 0.00616814 0.00336625 0.00323215 0.00616814 0.00591834 0.00818949 0.00728588 0.0108959 0.00945318 0.00728588 0.00661275 0.00945318 0.00839263 0.0108959 0.00945318 0.0116095 0.00954655 0.00945318 0.00839263 0.00954655 0.00806013 0.00661275 0.00616814 0.00839263 0.00772372 0.00616814 0.00591834 0.00772372 0.00740134 0.00839263 0.00772372 0.00806013 0.0071841 0.00772372 0.00740134 0.0071841 0.00686703 0 0 0.00323215 0.00315854 0 0 0.00315854 0.00311749 0.00323215 0.00315854 0.00591834 0.00581116 0.00315854 0.00311749 0.00581116 0.0057875 0 0 0.00311749 0.00308325 0 0 0.00308325 0.00303523 0.00311749 0.00308325 0.0057875 0.00579064 0.00308325 0.00303523 0.00579064 0.00577294 0.00591834 0.00581116 0.00740134 0.00734542 0.00581116 0.0057875 0.00734542 0.00745915 0.00740134 0.00734542 0.00686703 0.00699806 0.00734542 0.00745915 0.00699806 0.00743253 0.0057875 0.00579064 0.00745915 0.00764434 0.00579064 0.00577294 0.00764434 0.00781361 0.00745915 0.00764434 0.00743253 0.00801549 0.00764434 0.00781361 0.00801549 0.00860167 0 0 0.00303523 0.00295973 0 0 0.00295973 0.00285055 0.00303523 0.00295973 0.00577294 0.00570019 0.00295973 0.00285055 0.00570019 0.00555377 0 0 0.00285055 0.00270871 0 0 0.00270871 0.00254138 0.00285055 0.00270871 0.00555377 0.00533073 0.00270871 0.00254138 0.00533073 0.00504216 0.00577294 0.00570019 0.00781361 0.00789909 0.00570019 0.00555377 0.00789909 0.00785765 0.00781361 0.00789909 0.00860167 0.00907108 0.00789909 0.00785765 0.00907108 0.00933964 0.00555377 0.00533073 0.00785765 0.00767287 0.00533073 0.00504216 0.00767287 0.00735359 0.00785765 0.00767287 0.00933964 0.00936452 0.00767287 0.00735359 0.00936452 0.0091441 0 0 0.00254138 0.0023602 0 0 0.0023602 0.00217924 0.00254138 0.0023602 0.00504216 0.00471008 0.0023602 0.00217924 0.00471008 0.00436316 0 0 0.00217924 0.00201271 0 0 0.00201271 0.00187304 0.00217924 0.00201271 0.00436316 0.00403209 0.00201271 0.00187304 0.00403209 0.00374507 0.00504216 0.00471008 0.00735359 0.00692973 0.00471008 0.00436316 0.00692973 0.00644575 0.00735359 0.00692973 0.0091441 0.00871289 0.00692973 0.00644575 0.00871289 0.00813259 0.00436316 0.00403209 0.00644575 0.00595297 0.00403209 0.00374507 0.00595297 0.00550179 0.00644575 0.00595297 0.00813259 0.00748055 0.00595297 0.00550179 0.00748055 0.0068379 0 0 0.00187304 0.00176934 0 0 0.00176934 0.00170661 0.00187304 0.00176934 0.00374507 0.00352428 0.00176934 0.00170661 0.00352428 0.00338377 0 0 0.00170661 0.00168581 0 0 0.00168581 0.00170458 0.00170661 0.00168581 0.00338377 0.00332903 0.00168581 0.00170458 0.00332903 0.00335804 0.00374507 0.00352428 0.00550179 0.00513514 0.00352428 0.00338377 0.00513514 0.00488406 0.00550179 0.00513514 0.0068379 0.00627883 0.00513514 0.00488406 0.00627883 0.00586263 0.00338377 0.00332903 0.00488406 0.00476576 0.00332903 0.00335804 0.00476576 0.00478417 0.00488406 0.00476576 0.00586263 0.00562904 0.00476576 0.00478417 0.00562904 0.00559687 0 0 0.00170458 0.00175846 0 0 0.00175846 0.0018422 0.00170458 0.00175846 0.00335804 0.00346339 0.00175846 0.0018422 0.00346339 0.00363474 0 0 0.0018422 0.00195084 0 0 0.00195084 0.00208034 0.0018422 0.00195084 0.00363474 0.00386107 0.00195084 0.00208034 0.00386107 0.00413205 0.00335804 0.00346339 0.00478417 0.00493221 0.00346339 0.00363474 0.00493221 0.00519507 0.00478417 0.00493221 0.00559687 0.00576516 0.00493221 0.00519507 0.00576516 0.00611629 0.00363474 0.00386107 0.00519507 0.00555348 0.00386107 0.00413205 0.00555348 0.00598636 0.00519507 0.00555348 0.00611629 0.00661991 0.00555348 0.00598636 0.00661991 0.00723731 0 0 0.00208034 0.00222762 0 0 0.00222762 0.0023901 0.00208034 0.00222762 0.00413205 0.00443853 0.00222762 0.0023901 0.00443853 0.00477205 0 0 0.0023901 0.00256495 0 0 0.00256495 0.00274834 0.0023901 0.00256495 0.00477205 0.00512381 0.00256495 0.00274834 0.00512381 0.00548358 0.00413205 0.00443853 0.00598636 0.00647236 0.00443853 0.00477205 0.00647236 0.00699042 0.00598636 0.00647236 0.00723731 0.0079254 0.00647236 0.00699042 0.0079254 0.00864006 0.00477205 0.00512381 0.00699042 0.00751947 0.00512381 0.00548358 0.00751947 0.00803785 0.00699042 0.00751947 0.00864006 0.00933843 0.00751947 0.00803785 0.00933843 0.00998045 0 0 0.00274834 0.00293495 0 0 0.00293495 0.00311793 0.00274834 0.00293495 0.00548358 0.00583903 0.00293495 0.00311793 0.00583903 0.00617586 0 0 0.00311793 0.00328926 0 0 0.00328926 0.00344063 0.00311793 0.00328926 0.00617586 0.00647872 0.00328926 0.00344063 0.00647872 0.00673284 0.00548358 0.00583903 0.00803785 0.00852318 0.00583903 0.00617586 0.00852318 0.00895288 0.00803785 0.00852318 0.00998045 0.0105299 0.00852318 0.00895288 0.0105299 0.0109558 0.00617586 0.00647872 0.00895288 0.00930584 0.00647872 0.00673284 0.00930584 0.0095648 0.00895288 0.00930584 0.0109558 0.0112345 0.00930584 0.0095648 0.0112345 0.0113525 0 0 0.00344063 0.00356443 0 0 0.00356443 0.00365464 0.00344063 0.00356443 0.00673284 0.00692603 0.00356443 0.00365464 0.00692603 0.00705029 0 0 0.00365464 0.00370758 0 0 0.00370758 0.00372208 0.00365464 0.00370758 0.00705029 0.00710287 0.00370758 0.00372208 0.00710287 0.00708628 0.00673284 0.00692603 0.0095648 0.00971903 0.00692603 0.00705029 0.00971903 0.00976642 0.0095648 0.00971903 0.0113525 0.0113093 0.00971903 0.00976642 0.0113093 0.0111199 0.00705029 0.00710287 0.00976642 0.00971427 0.00710287 0.00708628 0.00971427 0.00957831 0.00976642 0.00971427 0.0111199 0.0108146 0.00971427 0.00957831 0.0108146 0.010436 0 0 0.00372208 0.0036993 0 0 0.0036993 0.00364208 0.00372208 0.0036993 0.00708628 0.00700734 0.0036993 0.00364208 0.00700734 0.00687538 0 0 0.00364208 0.00355412 0 0 0.00355412 0.00343901 0.00364208 0.00355412 0.00687538 0.00669998 0.00355412 0.00343901 0.00669998 0.00648882 0.00708628 0.00700734 0.00957831 0.00937994 0.00700734 0.00687538 0.00937994 0.00914214 0.00957831 0.00937994 0.010436 0.0100328 0.00937994 0.00914214 0.0100328 0.00965225 0.00687538 0.00669998 0.00914214 0.00888485 0.00669998 0.00648882 0.00888485 0.00862082 0.00914214 0.00888485 0.00965225 0.00933125 0.00888485 0.00862082 0.00933125 0.00908917 0 0 0.00343901 0.00329945 0 0 0.00329945 0.00313671 0.00343901 0.00329945 0.00648882 0.0062459 0.00329945 0.00313671 0.0062459 0.00597059 0 0 0.00313671 0.00295047 0 0 0.00295047 0.00273894 0.00313671 0.00295047 0.00597059 0.00565762 0.00295047 0.00273894 0.00565762 0.00529795 0.00648882 0.0062459 0.00862082 0.00835262 0.0062459 0.00597059 0.00835262 0.00807148 0.00862082 0.00835262 0.00908917 0.00892326 0.00835262 0.00807148 0.00892326 0.00880762 0.00597059 0.00565762 0.00807148 0.00775811 0.00565762 0.00529795 0.00775811 0.00738544 0.00807148 0.00775811 0.00880762 0.00869595 0.00775811 0.00738544 0.00869595 0.00852762 0 0 0.00273894 0.0024995 0 0 0.0024995 0.00222943 0.00273894 0.0024995 0.00529795 0.00488059 0.0024995 0.00222943 0.00488059 0.00439477 0 0 0.00222943 0.00192681 0 0 0.00192681 0.00159139 0.00222943 0.00192681 0.00439477 0.00383248 0.00192681 0.00159139 0.00383248 0.0031906 0.00529795 0.00488059 0.00738544 0.00692275 0.00488059 0.00439477 0.00692275 0.00634084 0.00738544 0.00692275 0.00852762 0.00823605 0.00692275 0.00634084 0.00823605 0.00775854 0.00439477 0.00383248 0.00634084 0.00561718 0.00383248 0.0031906 0.00561718 0.00474058 0.00634084 0.00561718 0.00775854 0.00704599 0.00561718 0.00474058 0.00704599 0.00607133 0 0 0.00159139 0.0012252 0 0 0.0012252 0.00083286 0.00159139 0.0012252 0.0031906 0.00247256 0.0012252 0.00083286 0.00247256 0.00168897 0 0 0.00083286 0.000421459 0 0 0.000421459 0 0.00083286 0.000421459 0.00168897 0.00085724 0.000421459 0 0.00085724 0 0.0031906 0.00247256 0.00474058 0.0037144 0.00247256 0.00168897 0.0037144 0.00255778 0.00474058 0.0037144 0.00607133 0.00483533 0.0037144 0.00255778 0.00483533 0.00336877 0.00168897 0.00085724 0.00255778 0.00130458 0.00085724 0 0.00130458 0 0.00255778 0.00130458 0.00336877 0.00173029 0.00130458 0 0.00173029 0 0 0.00229848 0 0.00269702 0.00229848 0.00448548 0.00269702 0.00521516 0 0.00269702 0 0.00284232 0.00269702 0.00521516 0.00284232 0.00542116 0.00448548 0.00646106 0.00521516 0.00739617 0.00646106 0.0081465 0.00739617 0.00911961 0.00521516 0.00739617 0.00542116 0.0075063 0.00739617 0.00911961 0.0075063 0.00892823 0 0.00284232 0 0.00259846 0.00284232 0.00542116 0.00259846 0.00484032 0 0.00259846 0 0.00183761 0.00259846 0.00484032 0.00183761 0.00323558 0.00542116 0.0075063 0.00484032 0.00641837 0.0075063 0.00892823 0.00641837 0.0071146 0.00484032 0.00641837 0.00323558 0.00382289 0.00641837 0.0071146 0.00382289 0.00334989 0.0081465 0.00949064 0.00911961 0.0103141 0.00949064 0.0104723 0.0103141 0.0109614 0.00911961 0.0103141 0.00892823 0.0095954 0.0103141 0.0109614 0.0095954 0.00949989 0.0104723 0.0110986 0.0109614 0.0110935 0.0110986 0.0114005 0.0110935 0.0107845 0.0109614 0.0110935 0.00949989 0.00871208 0.0110935 0.0107845 0.00871208 0.00736723 0.00892823 0.0095954 0.0071146 0.00682358 0.0095954 0.00949989 0.00682358 0.00555785 0.0071146 0.00682358 0.00334989 0.00171501 0.00682358 0.00555785 0.00171501 -0.00103539 0.00949989 0.00871208 0.00555785 0.0034378 0.00871208 0.00736723 0.0034378 0.000671531 0.00555785 0.0034378 -0.00103539 -0.00472