# vtk DataFile Version 3.0
#This file was generated by the deal.II library on 2012/5/30 at 14:17: 1
ASCII
DATASET UNSTRUCTURED_GRID

POINTS 23040 double
0 0 0
0.25 0 0
0 0.25 0
0.25 0.25 0
0.25 0 0
0.5 0 0
0.25 0.25 0
0.5 0.25 0
0 0.25 0
0.25 0.25 0
0 0.5 0
0.25 0.5 0
0.25 0.25 0
0.5 0.25 0
0.25 0.5 0
0.5 0.5 0
0.5 0 0
0.75 0 0
0.5 0.25 0
0.75 0.25 0
0.75 0 0
1 0 0
0.75 0.25 0
1 0.25 0
0.5 0.25 0
0.75 0.25 0
0.5 0.5 0
0.75 0.5 0
0.75 0.25 0
1 0.25 0
0.75 0.5 0
1 0.5 0
0 0.5 0
0.25 0.5 0
0 0.75 0
0.25 0.75 0
0.25 0.5 0
0.5 0.5 0
0.25 0.75 0
0.5 0.75 0
0 0.75 0
0.25 0.75 0
0 1 0
0.25 1 0
0.25 0.75 0
0.5 0.75 0
0.25 1 0
0.5 1 0
0.5 0.5 0
0.75 0.5 0
0.5 0.75 0
0.75 0.75 0
0.75 0.5 0
1 0.5 0
0.75 0.75 0
1 0.75 0
0.5 0.75 0
0.75 0.75 0
0.5 1 0
0.75 1 0
0.75 0.75 0
1 0.75 0
0.75 1 0
1 1 0
1 0 0
1.25 0 0
1 0.25 0
1.25 0.25 0
1.25 0 0
1.5 0 0
1.25 0.25 0
1.5 0.25 0
1 0.25 0
1.25 0.25 0
1 0.5 0
1.25 0.5 0
1.25 0.25 0
1.5 0.25 0
1.25 0.5 0
1.5 0.5 0
1.5 0 0
1.75 0 0
1.5 0.25 0
1.75 0.25 0
1.75 0 0
2 0 0
1.75 0.25 0
2 0.25 0
1.5 0.25 0
1.75 0.25 0
1.5 0.5 0
1.75 0.5 0
1.75 0.25 0
2 0.25 0
1.75 0.5 0
2 0.5 0
1 0.5 0
1.25 0.5 0
1 0.75 0
1.25 0.75 0
1.25 0.5 0
1.5 0.5 0
1.25 0.75 0
1.5 0.75 0
1 0.75 0
1.25 0.75 0
1 1 0
1.25 1 0
1.25 0.75 0
1.5 0.75 0
1.25 1 0
1.5 1 0
1.5 0.5 0
1.75 0.5 0
1.5 0.75 0
1.75 0.75 0
1.75 0.5 0
2 0.5 0
1.75 0.75 0
2 0.75 0
1.5 0.75 0
1.75 0.75 0
1.5 1 0
1.75 1 0
1.75 0.75 0
2 0.75 0
1.75 1 0
2 1 0
2 0 0
2.25 0 0
2 0.25 0
2.25 0.25 0
2.25 0 0
2.5 0 0
2.25 0.25 0
2.5 0.25 0
2 0.25 0
2.25 0.25 0
2 0.5 0
2.25 0.5 0
2.25 0.25 0
2.5 0.25 0
2.25 0.5 0
2.5 0.5 0
2.5 0 0
2.75 0 0
2.5 0.25 0
2.75 0.25 0
2.75 0 0
3 0 0
2.75 0.25 0
3 0.25 0
2.5 0.25 0
2.75 0.25 0
2.5 0.5 0
2.75 0.5 0
2.75 0.25 0
3 0.25 0
2.75 0.5 0
3 0.5 0
2 0.5 0
2.25 0.5 0
2 0.75 0
2.25 0.75 0
2.25 0.5 0
2.5 0.5 0
2.25 0.75 0
2.5 0.75 0
2 0.75 0
2.25 0.75 0
2 1 0
2.25 1 0
2.25 0.75 0
2.5 0.75 0
2.25 1 0
2.5 1 0
2.5 0.5 0
2.75 0.5 0
2.5 0.75 0
2.75 0.75 0
2.75 0.5 0
3 0.5 0
2.75 0.75 0
3 0.75 0
2.5 0.75 0
2.75 0.75 0
2.5 1 0
2.75 1 0
2.75 0.75 0
3 0.75 0
2.75 1 0
3 1 0
3 0 0
3.25 0 0
3 0.25 0
3.25 0.25 0
3.25 0 0
3.5 0 0
3.25 0.25 0
3.5 0.25 0
3 0.25 0
3.25 0.25 0
3 0.5 0
3.25 0.5 0
3.25 0.25 0
3.5 0.25 0
3.25 0.5 0
3.5 0.5 0
3.5 0 0
3.75 0 0
3.5 0.25 0
3.75 0.25 0
3.75 0 0
4 0 0
3.75 0.25 0
4 0.25 0
3.5 0.25 0
3.75 0.25 0
3.5 0.5 0
3.75 0.5 0
3.75 0.25 0
4 0.25 0
3.75 0.5 0
4 0.5 0
3 0.5 0
3.25 0.5 0
3 0.75 0
3.25 0.75 0
3.25 0.5 0
3.5 0.5 0
3.25 0.75 0
3.5 0.75 0
3 0.75 0
3.25 0.75 0
3 1 0
3.25 1 0
3.25 0.75 0
3.5 0.75 0
3.25 1 0
3.5 1 0
3.5 0.5 0
3.75 0.5 0
3.5 0.75 0
3.75 0.75 0
3.75 0.5 0
4 0.5 0
3.75 0.75 0
4 0.75 0
3.5 0.75 0
3.75 0.75 0
3.5 1 0
3.75 1 0
3.75 0.75 0
4 0.75 0
3.75 1 0
4 1 0
4 0 0
4.25 0 0
4 0.25 0
4.25 0.25 0
4.25 0 0
4.5 0 0
4.25 0.25 0
4.5 0.25 0
4 0.25 0
4.25 0.25 0
4 0.5 0
4.25 0.5 0
4.25 0.25 0
4.5 0.25 0
4.25 0.5 0
4.5 0.5 0
4.5 0 0
4.75 0 0
4.5 0.25 0
4.75 0.25 0
4.75 0 0
5 0 0
4.75 0.25 0
5 0.25 0
4.5 0.25 0
4.75 0.25 0
4.5 0.5 0
4.75 0.5 0
4.75 0.25 0
5 0.25 0
4.75 0.5 0
5 0.5 0
4 0.5 0
4.25 0.5 0
4 0.75 0
4.25 0.75 0
4.25 0.5 0
4.5 0.5 0
4.25 0.75 0
4.5 0.75 0
4 0.75 0
4.25 0.75 0
4 1 0
4.25 1 0
4.25 0.75 0
4.5 0.75 0
4.25 1 0
4.5 1 0
4.5 0.5 0
4.75 0.5 0
4.5 0.75 0
4.75 0.75 0
4.75 0.5 0
5 0.5 0
4.75 0.75 0
5 0.75 0
4.5 0.75 0
4.75 0.75 0
4.5 1 0
4.75 1 0
4.75 0.75 0
5 0.75 0
4.75 1 0
5 1 0
5 0 0
5.25 0 0
5 0.25 0
5.25 0.25 0
5.25 0 0
5.5 0 0
5.25 0.25 0
5.5 0.25 0
5 0.25 0
5.25 0.25 0
5 0.5 0
5.25 0.5 0
5.25 0.25 0
5.5 0.25 0
5.25 0.5 0
5.5 0.5 0
5.5 0 0
5.75 0 0
5.5 0.25 0
5.75 0.25 0
5.75 0 0
6 0 0
5.75 0.25 0
6 0.25 0
5.5 0.25 0
5.75 0.25 0
5.5 0.5 0
5.75 0.5 0
5.75 0.25 0
6 0.25 0
5.75 0.5 0
6 0.5 0
5 0.5 0
5.25 0.5 0
5 0.75 0
5.25 0.75 0
5.25 0.5 0
5.5 0.5 0
5.25 0.75 0
5.5 0.75 0
5 0.75 0
5.25 0.75 0
5 1 0
5.25 1 0
5.25 0.75 0
5.5 0.75 0
5.25 1 0
5.5 1 0
5.5 0.5 0
5.75 0.5 0
5.5 0.75 0
5.75 0.75 0
5.75 0.5 0
6 0.5 0
5.75 0.75 0
6 0.75 0
5.5 0.75 0
5.75 0.75 0
5.5 1 0
5.75 1 0
5.75 0.75 0
6 0.75 0
5.75 1 0
6 1 0
6 0 0
6.25 0 0
6 0.25 0
6.25 0.25 0
6.25 0 0
6.5 0 0
6.25 0.25 0
6.5 0.25 0
6 0.25 0
6.25 0.25 0
6 0.5 0
6.25 0.5 0
6.25 0.25 0
6.5 0.25 0
6.25 0.5 0
6.5 0.5 0
6.5 0 0
6.75 0 0
6.5 0.25 0
6.75 0.25 0
6.75 0 0
7 0 0
6.75 0.25 0
7 0.25 0
6.5 0.25 0
6.75 0.25 0
6.5 0.5 0
6.75 0.5 0
6.75 0.25 0
7 0.25 0
6.75 0.5 0
7 0.5 0
6 0.5 0
6.25 0.5 0
6 0.75 0
6.25 0.75 0
6.25 0.5 0
6.5 0.5 0
6.25 0.75 0
6.5 0.75 0
6 0.75 0
6.25 0.75 0
6 1 0
6.25 1 0
6.25 0.75 0
6.5 0.75 0
6.25 1 0
6.5 1 0
6.5 0.5 0
6.75 0.5 0
6.5 0.75 0
6.75 0.75 0
6.75 0.5 0
7 0.5 0
6.75 0.75 0
7 0.75 0
6.5 0.75 0
6.75 0.75 0
6.5 1 0
6.75 1 0
6.75 0.75 0
7 0.75 0
6.75 1 0
7 1 0
7 0 0
7.25 0 0
7 0.25 0
7.25 0.25 0
7.25 0 0
7.5 0 0
7.25 0.25 0
7.5 0.25 0
7 0.25 0
7.25 0.25 0
7 0.5 0
7.25 0.5 0
7.25 0.25 0
7.5 0.25 0
7.25 0.5 0
7.5 0.5 0
7.5 0 0
7.75 0 0
7.5 0.25 0
7.75 0.25 0
7.75 0 0
8 0 0
7.75 0.25 0
8 0.25 0
7.5 0.25 0
7.75 0.25 0
7.5 0.5 0
7.75 0.5 0
7.75 0.25 0
8 0.25 0
7.75 0.5 0
8 0.5 0
7 0.5 0
7.25 0.5 0
7 0.75 0
7.25 0.75 0
7.25 0.5 0
7.5 0.5 0
7.25 0.75 0
7.5 0.75 0
7 0.75 0
7.25 0.75 0
7 1 0
7.25 1 0
7.25 0.75 0
7.5 0.75 0
7.25 1 0
7.5 1 0
7.5 0.5 0
7.75 0.5 0
7.5 0.75 0
7.75 0.75 0
7.75 0.5 0
8 0.5 0
7.75 0.75 0
8 0.75 0
7.5 0.75 0
7.75 0.75 0
7.5 1 0
7.75 1 0
7.75 0.75 0
8 0.75 0
7.75 1 0
8 1 0
8 0 0
8.25 0 0
8 0.25 0
8.25 0.25 0
8.25 0 0
8.5 0 0
8.25 0.25 0
8.5 0.25 0
8 0.25 0
8.25 0.25 0
8 0.5 0
8.25 0.5 0
8.25 0.25 0
8.5 0.25 0
8.25 0.5 0
8.5 0.5 0
8.5 0 0
8.75 0 0
8.5 0.25 0
8.75 0.25 0
8.75 0 0
9 0 0
8.75 0.25 0
9 0.25 0
8.5 0.25 0
8.75 0.25 0
8.5 0.5 0
8.75 0.5 0
8.75 0.25 0
9 0.25 0
8.75 0.5 0
9 0.5 0
8 0.5 0
8.25 0.5 0
8 0.75 0
8.25 0.75 0
8.25 0.5 0
8.5 0.5 0
8.25 0.75 0
8.5 0.75 0
8 0.75 0
8.25 0.75 0
8 1 0
8.25 1 0
8.25 0.75 0
8.5 0.75 0
8.25 1 0
8.5 1 0
8.5 0.5 0
8.75 0.5 0
8.5 0.75 0
8.75 0.75 0
8.75 0.5 0
9 0.5 0
8.75 0.75 0
9 0.75 0
8.5 0.75 0
8.75 0.75 0
8.5 1 0
8.75 1 0
8.75 0.75 0
9 0.75 0
8.75 1 0
9 1 0
9 0 0
9.25 0 0
9 0.25 0
9.25 0.25 0
9.25 0 0
9.5 0 0
9.25 0.25 0
9.5 0.25 0
9 0.25 0
9.25 0.25 0
9 0.5 0
9.25 0.5 0
9.25 0.25 0
9.5 0.25 0
9.25 0.5 0
9.5 0.5 0
9.5 0 0
9.75 0 0
9.5 0.25 0
9.75 0.25 0
9.75 0 0
10 0 0
9.75 0.25 0
10 0.25 0
9.5 0.25 0
9.75 0.25 0
9.5 0.5 0
9.75 0.5 0
9.75 0.25 0
10 0.25 0
9.75 0.5 0
10 0.5 0
9 0.5 0
9.25 0.5 0
9 0.75 0
9.25 0.75 0
9.25 0.5 0
9.5 0.5 0
9.25 0.75 0
9.5 0.75 0
9 0.75 0
9.25 0.75 0
9 1 0
9.25 1 0
9.25 0.75 0
9.5 0.75 0
9.25 1 0
9.5 1 0
9.5 0.5 0
9.75 0.5 0
9.5 0.75 0
9.75 0.75 0
9.75 0.5 0
10 0.5 0
9.75 0.75 0
10 0.75 0
9.5 0.75 0
9.75 0.75 0
9.5 1 0
9.75 1 0
9.75 0.75 0
10 0.75 0
9.75 1 0
10 1 0
10 0 0
10.25 0 0
10 0.25 0
10.25 0.25 0
10.25 0 0
10.5 0 0
10.25 0.25 0
10.5 0.25 0
10 0.25 0
10.25 0.25 0
10 0.5 0
10.25 0.5 0
10.25 0.25 0
10.5 0.25 0
10.25 0.5 0
10.5 0.5 0
10.5 0 0
10.75 0 0
10.5 0.25 0
10.75 0.25 0
10.75 0 0
11 0 0
10.75 0.25 0
11 0.25 0
10.5 0.25 0
10.75 0.25 0
10.5 0.5 0
10.75 0.5 0
10.75 0.25 0
11 0.25 0
10.75 0.5 0
11 0.5 0
10 0.5 0
10.25 0.5 0
10 0.75 0
10.25 0.75 0
10.25 0.5 0
10.5 0.5 0
10.25 0.75 0
10.5 0.75 0
10 0.75 0
10.25 0.75 0
10 1 0
10.25 1 0
10.25 0.75 0
10.5 0.75 0
10.25 1 0
10.5 1 0
10.5 0.5 0
10.75 0.5 0
10.5 0.75 0
10.75 0.75 0
10.75 0.5 0
11 0.5 0
10.75 0.75 0
11 0.75 0
10.5 0.75 0
10.75 0.75 0
10.5 1 0
10.75 1 0
10.75 0.75 0
11 0.75 0
10.75 1 0
11 1 0
11 0 0
11.25 0 0
11 0.25 0
11.25 0.25 0
11.25 0 0
11.5 0 0
11.25 0.25 0
11.5 0.25 0
11 0.25 0
11.25 0.25 0
11 0.5 0
11.25 0.5 0
11.25 0.25 0
11.5 0.25 0
11.25 0.5 0
11.5 0.5 0
11.5 0 0
11.75 0 0
11.5 0.25 0
11.75 0.25 0
11.75 0 0
12 0 0
11.75 0.25 0
12 0.25 0
11.5 0.25 0
11.75 0.25 0
11.5 0.5 0
11.75 0.5 0
11.75 0.25 0
12 0.25 0
11.75 0.5 0
12 0.5 0
11 0.5 0
11.25 0.5 0
11 0.75 0
11.25 0.75 0
11.25 0.5 0
11.5 0.5 0
11.25 0.75 0
11.5 0.75 0
11 0.75 0
11.25 0.75 0
11 1 0
11.25 1 0
11.25 0.75 0
11.5 0.75 0
11.25 1 0
11.5 1 0
11.5 0.5 0
11.75 0.5 0
11.5 0.75 0
11.75 0.75 0
11.75 0.5 0
12 0.5 0
11.75 0.75 0
12 0.75 0
11.5 0.75 0
11.75 0.75 0
11.5 1 0
11.75 1 0
11.75 0.75 0
12 0.75 0
11.75 1 0
12 1 0
12 0 0
12.25 0 0
12 0.25 0
12.25 0.25 0
12.25 0 0
12.5 0 0
12.25 0.25 0
12.5 0.25 0
12 0.25 0
12.25 0.25 0
12 0.5 0
12.25 0.5 0
12.25 0.25 0
12.5 0.25 0
12.25 0.5 0
12.5 0.5 0
12.5 0 0
12.75 0 0
12.5 0.25 0
12.75 0.25 0
12.75 0 0
13 0 0
12.75 0.25 0
13 0.25 0
12.5 0.25 0
12.75 0.25 0
12.5 0.5 0
12.75 0.5 0
12.75 0.25 0
13 0.25 0
12.75 0.5 0
13 0.5 0
12 0.5 0
12.25 0.5 0
12 0.75 0
12.25 0.75 0
12.25 0.5 0
12.5 0.5 0
12.25 0.75 0
12.5 0.75 0
12 0.75 0
12.25 0.75 0
12 1 0
12.25 1 0
12.25 0.75 0
12.5 0.75 0
12.25 1 0
12.5 1 0
12.5 0.5 0
12.75 0.5 0
12.5 0.75 0
12.75 0.75 0
12.75 0.5 0
13 0.5 0
12.75 0.75 0
13 0.75 0
12.5 0.75 0
12.75 0.75 0
12.5 1 0
12.75 1 0
12.75 0.75 0
13 0.75 0
12.75 1 0
13 1 0
13 0 0
13.25 0 0
13 0.25 0
13.25 0.25 0
13.25 0 0
13.5 0 0
13.25 0.25 0
13.5 0.25 0
13 0.25 0
13.25 0.25 0
13 0.5 0
13.25 0.5 0
13.25 0.25 0
13.5 0.25 0
13.25 0.5 0
13.5 0.5 0
13.5 0 0
13.75 0 0
13.5 0.25 0
13.75 0.25 0
13.75 0 0
14 0 0
13.75 0.25 0
14 0.25 0
13.5 0.25 0
13.75 0.25 0
13.5 0.5 0
13.75 0.5 0
13.75 0.25 0
14 0.25 0
13.75 0.5 0
14 0.5 0
13 0.5 0
13.25 0.5 0
13 0.75 0
13.25 0.75 0
13.25 0.5 0
13.5 0.5 0
13.25 0.75 0
13.5 0.75 0
13 0.75 0
13.25 0.75 0
13 1 0
13.25 1 0
13.25 0.75 0
13.5 0.75 0
13.25 1 0
13.5 1 0
13.5 0.5 0
13.75 0.5 0
13.5 0.75 0
13.75 0.75 0
13.75 0.5 0
14 0.5 0
13.75 0.75 0
14 0.75 0
13.5 0.75 0
13.75 0.75 0
13.5 1 0
13.75 1 0
13.75 0.75 0
14 0.75 0
13.75 1 0
14 1 0
14 0 0
14.25 0 0
14 0.25 0
14.25 0.25 0
14.25 0 0
14.5 0 0
14.25 0.25 0
14.5 0.25 0
14 0.25 0
14.25 0.25 0
14 0.5 0
14.25 0.5 0
14.25 0.25 0
14.5 0.25 0
14.25 0.5 0
14.5 0.5 0
14.5 0 0
14.75 0 0
14.5 0.25 0
14.75 0.25 0
14.75 0 0
15 0 0
14.75 0.25 0
15 0.25 0
14.5 0.25 0
14.75 0.25 0
14.5 0.5 0
14.75 0.5 0
14.75 0.25 0
15 0.25 0
14.75 0.5 0
15 0.5 0
14 0.5 0
14.25 0.5 0
14 0.75 0
14.25 0.75 0
14.25 0.5 0
14.5 0.5 0
14.25 0.75 0
14.5 0.75 0
14 0.75 0
14.25 0.75 0
14 1 0
14.25 1 0
14.25 0.75 0
14.5 0.75 0
14.25 1 0
14.5 1 0
14.5 0.5 0
14.75 0.5 0
14.5 0.75 0
14.75 0.75 0
14.75 0.5 0
15 0.5 0
14.75 0.75 0
15 0.75 0
[...]
POINT_DATA 23040
SCALARS State_OptProblem double 1
LOOKUP_TABLE default
0 0 0 -0.000125983 0 0 -0.000125983 -0.000223111 0 -0.000125983 0 -0.000150364 -0.000125983 -0.000223111 -0.000150364 -0.000249912 0 0 -0.000223111 -0.000265825 0 0 -0.000265825 -0.000234808 -0.000223111 -0.000265825 -0.000249912 -0.000253646 -0.000265825 -0.000234808 -0.000253646 -0.000127629 0 -0.000150364 0 4.92715e-06 -0.000150364 -0.000249912 4.92715e-06 6.82088e-05 0 4.92715e-06 0 0.000373304 4.92715e-06 6.82088e-05 0.000373304 0.000789583 -0.000249912 -0.000253646 6.82088e-05 0.000241539 -0.000253646 -0.000127629 0.000241539 0.000563874 6.82088e-05 0.000241539 0.000789583 0.00128719 0.000241539 0.000563874 0.00128719 0.00189536 0 0 -0.000234808 -0.000119293 0 0 -0.000119293 8.1512e-05 -0.000234808 -0.000119293 -0.000127629 0.000146881 -0.000119293 8.1512e-05 0.000146881 0.000570789 0 0 8.1512e-05 0.000358014 0 0 0.000358014 0.000690889 8.1512e-05 0.000358014 0.000570789 0.0011263 0.000358014 0.000690889 0.0011263 0.00177793 -0.000127629 0.000146881 0.000563874 0.00105646 0.000146881 0.000570789 0.00105646 0.00171945 0.000563874 0.00105646 0.00189536 0.00263008 0.00105646 0.00171945 0.00263008 0.00349059 0.000570789 0.0011263 0.00171945 0.00253041 0.0011263 0.00177793 0.00253041 0.00344506 0.00171945 0.00253041 0.00349059 0.00445699 0.00253041 0.00344506 0.00445699 0.00548947 0 0 0.000690889 0.00105276 0 0 0.00105276 0.00141075 0.000690889 0.00105276 0.00177793 0.00247538 0.00105276 0.00141075 0.00247538 0.00315814 0 0 0.00141075 0.00172975 0 0 0.00172975 0.00197603 0.00141075 0.00172975 0.00315814 0.00376134 0.00172975 0.00197603 0.00376134 0.00422253 0.00177793 0.00247538 0.00344506 0.00440029 0.00247538 0.00315814 0.00440029 0.00531951 0.00344506 0.00440029 0.00548947 0.00652971 0.00440029 0.00531951 0.00652971 0.00750489 0.00315814 0.00376134 0.00531951 0.00611994 0.00376134 0.00422253 0.00611994 0.00672131 0.00531951 0.00611994 0.00750489 0.00833425 0.00611994 0.00672131 0.00833425 0.00893788 0 0 0.00197603 0.00212086 0 0 0.00212086 0.00214378 0.00197603 0.00212086 0.00422253 0.00448854 0.00212086 0.00214378 0.00448854 0.00452164 0 0 0.00214378 0.00203503 0 0 0.00203503 0.00179694 0.00214378 0.00203503 0.00452164 0.00430439 0.00203503 0.00179694 0.00430439 0.00384228 0.00422253 0.00448854 0.00672131 0.0070551 0.00448854 0.00452164 0.0070551 0.00707303 0.00672131 0.0070551 0.00893788 0.00924669 0.0070551 0.00707303 0.00924669 0.0092123 0.00452164 0.00430439 0.00707303 0.00675392 0.00430439 0.00384228 0.00675392 0.00610753 0.00707303 0.00675392 0.0092123 0.00881525 0.00675392 0.00610753 0.00881525 0.00806995 0 0 0.00179694 0.00144401 0 0 0.00144401 0.00100166 0.00179694 0.00144401 0.00384228 0.00316388 0.00144401 0.00100166 0.00316388 0.00231846 0 0 0.00100166 0.000503737 0 0 0.000503737 -1.09268e-05 0.00100166 0.000503737 0.00231846 0.00137103 0.000503737 -1.09268e-05 0.00137103 0.000395718 0.00384228 0.00316388 0.00610753 0.00517486 0.00316388 0.00231846 0.00517486 0.00402477 0.00610753 0.00517486 0.00806995 0.00702543 0.00517486 0.00402477 0.00702543 0.00576136 0.00231846 0.00137103 0.00402477 0.00274692 0.00137103 0.000395718 0.00274692 0.00144219 0.00402477 0.00274692 0.00576136 0.00437953 0.00274692 0.00144219 0.00437953 0.00299198 0 0 -1.09268e-05 -0.000502522 0 0 -0.000502522 -0.000934448 -1.09268e-05 -0.000502522 0.000395718 -0.000532177 -0.000502522 -0.000934448 -0.000532177 -0.00134417 0 0 -0.000934448 -0.0012771 0 0 -0.0012771 -0.00151079 -0.000934448 -0.0012771 -0.00134417 -0.00198585 -0.0012771 -0.00151079 -0.00198585 -0.00242217 0.000395718 -0.000532177 0.00144219 0.000211426 -0.000532177 -0.00134417 0.000211426 -0.000855814 0.00144219 0.000211426 0.00299198 0.00170732 0.000211426 -0.000855814 0.00170732 0.000617216 -0.00134417 -0.00198585 -0.000855814 -0.00169109 -0.00198585 -0.00242217 -0.00169109 -0.00225392 -0.000855814 -0.00169109 0.000617216 -0.000214706 -0.00169109 -0.00225392 -0.000214706 -0.000759606 0 0 -0.00151079 -0.00162719 0 0 -0.00162719 -0.00162919 -0.00151079 -0.00162719 -0.00242217 -0.00264008 -0.00162719 -0.00162919 -0.00264008 -0.00264754 0 0 -0.00162919 -0.00152872 0 0 -0.00152872 -0.00134299 -0.00162919 -0.00152872 -0.00264754 -0.00246901 -0.00152872 -0.00134299 -0.00246901 -0.00213764 -0.00242217 -0.00264008 -0.00225392 -0.00253435 -0.00264008 -0.00264754 -0.00253435 -0.00255039 -0.00225392 -0.00253435 -0.000759606 -0.00102424 -0.00253435 -0.00255039 -0.00102424 -0.00104501 -0.00264754 -0.00246901 -0.00255039 -0.00234019 -0.00246901 -0.00213764 -0.00234019 -0.00194989 -0.00255039 -0.00234019 -0.00104501 -0.000875609 -0.00234019 -0.00194989 -0.000875609 -0.000569836 0 0 -0.00134299 -0.0010897 0 0 -0.0010897 -0.00078233 -0.00134299 -0.0010897 -0.00213764 -0.00168575 -0.0010897 -0.00078233 -0.00168575 -0.00113563 0 0 -0.00078233 -0.00042677 0 0 -0.00042677 -2.09923e-05 -0.00078233 -0.00042677 -0.00113563 -0.000493494 -0.00042677 -2.09923e-05 -0.000493494 0.000250477 -0.00213764 -0.00168575 -0.00194989 -0.00141942 -0.00168575 -0.00113563 -0.00141942 -0.000769474 -0.00194989 -0.00141942 -0.000569836 -0.000162855 -0.00141942 -0.000769474 -0.000162855 0.000344434 -0.00113563 -0.000493494 -0.000769474 6.05205e-06 -0.000493494 0.000250477 6.05205e-06 0.000937799 -0.000769474 6.05205e-06 0.000344434 0.000992324 6.05205e-06 0.000937799 0.000992324 0.00185508 0 0 -2.09923e-05 0.00044132 0 0 0.00044132 0.000962766 -2.09923e-05 0.00044132 0.000250477 0.00111381 0.00044132 0.000962766 0.00111381 0.00210469 0 0 0.000962766 0.00153082 0 0 0.00153082 0.00210559 0.000962766 0.00153082 0.00210469 0.00319822 0.00153082 0.00210559 0.00319822 0.00431149 0.000250477 0.00111381 0.000937799 0.00206591 0.00111381 0.00210469 0.00206591 0.00341172 0.000937799 0.00206591 0.00185508 0.00301583 0.00206591 0.00341172 0.00301583 0.00452371 0.00210469 0.00319822 0.00341172 0.00493986 0.00319822 0.00431149 0.00493986 0.0065197 0.00341172 0.00493986 0.00452371 0.0063391 0.00493986 0.0065197 0.0063391 0.00827984 0 0 0.00210559 0.00261078 0 0 0.00261078 0.00293281 0.00210559 0.00261078 0.00431149 0.00528588 0.00261078 0.00293281 0.00528588 0.00588696 0 0 0.00293281 0.00293252 0 0 0.00293252 0.00247121 0.00293281 0.00293252 0.00588696 0.00583109 0.00293252 0.00247121 0.00583109 0.00484268 0.00431149 0.00528588 0.0065197 0.00789965 0.00528588 0.00588696 0.00789965 0.00871096 0.0065197 0.00789965 0.00827984 0.00998853 0.00789965 0.00871096 0.00998853 0.0109445 0.00588696 0.00583109 0.00871096 0.00851575 0.00583109 0.00484268 0.00851575 0.00690551 0.00871096 0.00851575 0.0109445 0.0105427 0.00851575 0.00690551 0.0105427 0.00824784 0 0 0.00247121 0.00144829 0 0 0.00144829 -0.000158759 0.00247121 0.00144829 0.00484268 0.00273557 0.00144829 -0.000158759 0.00273557 -0.000501575 0 0 -0.000158759 -0.00226629 0 0 -0.00226629 -0.00468338 -0.000158759 -0.00226629 -0.000501575 -0.00464857 -0.00226629 -0.00468338 -0.00464857 -0.00926105 0.00484268 0.00273557 0.00690551 0.00363932 0.00273557 -0.000501575 0.00363932 -0.00121293 0.00690551 0.00363932 0.00824784 0.00381022 0.00363932 -0.00121293 0.00381022 -0.00251158 -0.000501575 -0.00464857 -0.00121293 -0.0071809 -0.00464857 -0.00926105 -0.0071809 -0.013426 -0.00121293 -0.0071809 -0.00251158 -0.00981386 -0.0071809 -0.013426 -0.00981386 -0.0166182 0 0 -0.00468338 -0.00714556 0 0 -0.00714556 -0.00937653 -0.00468338 -0.00714556 -0.00926105 -0.0137613 -0.00714556 -0.00937653 -0.0137613 -0.0175951 0 0 -0.00937653 -0.0111549 0 0 -0.0111549 -0.0123564 -0.00937653 -0.0111549 -0.0175951 -0.0203934 -0.0111549 -0.0123564 -0.0203934 -0.0220588 -0.00926105 -0.0137613 -0.013426 -0.0189382 -0.0137613 -0.0175951 -0.0189382 -0.0228671 -0.013426 -0.0189382 -0.0166182 -0.0212455 -0.0189382 -0.0228671 -0.0212455 -0.0224665 -0.0175951 -0.0203934 -0.0228671 -0.0248562 -0.0203934 -0.0220588 -0.0248562 -0.0251904 -0.0228671 -0.0248562 -0.0224665 -0.0201832 -0.0248562 -0.0251904 -0.0201832 -0.0157185 0 0 -0.0123564 -0.012953 0 0 -0.012953 -0.0129732 -0.0123564 -0.012953 -0.0220588 -0.022724 -0.012953 -0.0129732 -0.022724 -0.0226032 0 0 -0.0129732 -0.0124541 0 0 -0.0124541 -0.0114173 -0.0129732 -0.0124541 -0.0226032 -0.0218274 -0.0124541 -0.0114173 -0.0218274 -0.0203687 -0.0220588 -0.022724 -0.0251904 -0.0246271 -0.022724 -0.0226032 -0.0246271 -0.0239611 -0.0251904 -0.0246271 -0.0157185 -0.0113746 -0.0246271 -0.0239611 -0.0113746 -0.00934339 -0.0226032 -0.0218274 -0.0239611 -0.0235634 -0.0218274 -0.0203687 -0.0235634 -0.0231794 -0.0239611 -0.0235634 -0.00934339 -0.0105485 -0.0235634 -0.0231794 -0.0105485 -0.0141449 0 0 -0.0114173 -0.00988488 0 0 -0.00988488 -0.00792126 -0.0114173 -0.00988488 -0.0203687 -0.0181015 -0.00988488 -0.00792126 -0.0181015 -0.0149557 0 0 -0.00792126 -0.00566761 0 0 -0.00566761 -0.00334151 -0.00792126 -0.00566761 -0.0149557 -0.0110579 -0.00566761 -0.00334151 -0.0110579 -0.00676951 -0.0203687 -0.0181015 -0.0231794 -0.0221135 -0.0181015 -0.0149557 -0.0221135 -0.0196774 -0.0231794 -0.0221135 -0.0141449 -0.0180063 -0.0221135 -0.0196774 -0.0180063 -0.0198727 -0.0149557 -0.0110579 -0.0196774 -0.0156164 -0.0110579 -0.00676951 -0.0156164 -0.010276 -0.0196774 -0.0156164 -0.0198727 -0.0184352 -0.0156164 -0.010276 -0.0184352 -0.0137784 0 0 -0.00334151 -0.00119578 0 0 -0.00119578 0.00054475 -0.00334151 -0.00119578 -0.00676951 -0.00260323 -0.00119578 0.00054475 -0.00260323 0.000932368 0 0 0.00054475 0.00173965 0 0 0.00173965 0.00236047 0.00054475 0.00173965 0.000932368 0.00348018 0.00173965 0.00236047 0.00348018 0.00491474 -0.00676951 -0.00260323 -0.010276 -0.00445866 -0.00260323 0.000932368 -0.00445866 0.00090272 -0.010276 -0.00445866 -0.0137784 -0.0070958 -0.00445866 0.00090272 -0.0070958 -1.72348e-05 0.000932368 0.00348018 0.00090272 0.00506433 0.00348018 0.00491474 0.00506433 0.00765709 0.00090272 0.00506433 -1.72348e-05 0.00603447 0.00506433 0.00765709 0.00603447 0.0102106 0 0 0.00236047 0.00248327 0 0 0.00248327 0.00225491 0.00236047 0.00248327 0.00491474 0.00533903 0.00248327 0.00225491 0.00533903 0.00501823 0 0 0.00225491 0.0018482 0 0 0.0018482 0.00142099 0.00225491 0.0018482 0.00501823 0.00428665 0.0018482 0.00142099 0.00428665 0.00346067 0.00491474 0.00533903 0.00765709 0.00870812 0.00533903 0.00501823 0.00870812 0.008542 0.00765709 0.00870812 0.0102106 0.0123029 0.00870812 0.008542 0.0123029 0.0126049 0.00501823 0.00428665 0.008542 0.00763038 0.00428665 0.00346067 0.00763038 0.00644842 0.008542 0.00763038 0.0126049 0.0116876 0.00763038 0.00644842 0.0116876 0.010183 0 0 0.00142099 0.00108819 0 0 0.00108819 0.000909943 0.00142099 0.00108819 0.00346067 0.00277829 0.00108819 0.000909943 0.00277829 0.0023719 0 0 0.000909943 0.000893993 0 0 0.000893993 0.0010079 0.000909943 0.000893993 0.0023719 0.00227048 0.000893993 0.0010079 0.00227048 0.0024222 0.00346067 0.00277829 0.00644842 0.00537263 0.00277829 0.0023719 0.00537263 0.00463128 0.00644842 0.00537263 0.010183 0.00862702 0.00537263 0.00463128 0.00862702 0.00737746 0.0023719 0.00227048 0.00463128 0.00430131 0.00227048 0.0024222 0.00430131 0.00433759 0.00463128 0.00430131 0.00737746 0.00659831 0.00430131 0.00433759 0.00659831 0.00629008 0 0 0.0010079 0.00119579 0 0 0.00119579 0.0013951 0.0010079 0.00119579 0.0024222 0.00272662 0.00119579 0.0013951 0.00272662 0.00306741 0 0 0.0013951 0.00155033 0 0 0.00155033 0.00162193 0.0013951 0.00155033 0.00306741 0.00333932 0.00155033 0.00162193 0.00333932 0.00346582 0.0024222 0.00272662 0.00433759 0.00461799 0.00272662 0.00306741 0.00461799 0.00499023 0.00433759 0.00461799 0.00629008 0.0063435 0.00461799 0.00499023 0.0063435 0.00659726 0.00306741 0.00333932 0.00499023 0.00531087 0.00333932 0.00346582 0.00531087 0.00547135 0.00499023 0.00531087 0.00659726 0.0068871 0.00531087 0.00547135 0.0068871 0.00707919 0 0 0.00162193 0.0015902 0 0 0.0015902 0.00145492 0.00162193 0.0015902 0.00346582 0.00340707 0.0015902 0.00145492 0.00340707 0.00315945 0 0 0.00145492 0.00123173 0 0 0.00123173 0.000947038 0.00145492 0.00123173 0.00315945 0.00274908 0.00123173 0.000947038 0.00274908 0.00222241 0.00346582 0.00340707 0.00547135 0.00541018 0.00340707 0.00315945 0.00541018 0.00511323 0.00547135 0.00541018 0.00707919 0.00708687 0.00541018 0.00511323 0.00708687 0.00687303 0.00315945 0.00274908 0.00511323 0.00460579 0.00274908 0.00222241 0.00460579 0.00394049 0.00511323 0.00460579 0.00687303 0.00644295 0.00460579 0.00394049 0.00644295 0.0058325 0 0 0.000947038 0.000632427 0 0 0.000632427 0.00031972 0.000947038 0.000632427 0.00222241 0.00163596 0.000632427 0.00031972 0.00163596 0.00104744 0 0 0.00031972 3.70981e-05 0 0 3.70981e-05 -0.000193541 0.00031972 3.70981e-05 0.00104744 0.000508765 3.70981e-05 -0.000193541 0.000508765 6.13764e-05 0.00222241 0.00163596 0.00394049 0.00318453 0.00163596 0.00104744 0.00318453 0.00240871 0.00394049 0.00318453 0.0058325 0.00509608 0.00318453 0.00240871 0.00509608 0.00429675 0.00104744 0.000508765 0.00240871 0.00167915 0.000508765 6.13764e-05 0.00167915 0.00105172 0.00240871 0.00167915 0.00429675 0.00349937 0.00167915 0.00105172 0.00349937 0.00276587 0 0 -0.000193541 -0.000358124 0 0 -0.000358124 -0.000451042 -0.000193541 -0.000358124 6.13764e-05 -0.000266664 -0.000358124 -0.000451042 -0.000266664 -0.000462138 0 0 -0.000451042 -0.000475073 0 0 -0.000475073 -0.000440609 -0.000451042 -0.000475073 -0.000462138 -0.000527043 -0.000475073 -0.000440609 -0.000527043 -0.000477827 6.13764e-05 -0.000266664 0.00105172 0.000568186 -0.000266664 -0.000462138 0.000568186 0.000253528 0.00105172 0.000568186 0.00276587 0.0021511 0.000568186 0.000253528 0.0021511 0.00169827 -0.000462138 -0.000527043 0.000253528 0.000113983 -0.000527043 -0.000477827 0.000113983 0.000136211 0.000253528 0.000113983 0.00169827 0.00143356 0.000113983 0.000136211 0.00143356 0.00136132 0 0 -0.000440609 -0.000364184 0 0 -0.000364184 -0.000266249 -0.000440609 -0.000364184 -0.000477827 -0.000343258 -0.000364184 -0.000266249 -0.000343258 -0.00016067 0 0 -0.000266249 -0.0001683 0 0 -0.0001683 -8.96554e-05 -0.000266249 -0.0001683 -0.00016067 2.93359e-05 -0.0001683 -8.96554e-05 2.93359e-05 0.000189197 -0.000477827 -0.000343258 0.000136211 0.000288395 -0.000343258 -0.00016067 0.000288395 0.000524074 0.000136211 0.000288395 0.00136132 0.00146149 0.000288395 0.000524074 0.00146149 0.00169135 -0.00016067 2.93359e-05 0.000524074 0.000788928 2.93359e-05 0.000189197 0.000788928 0.00102981 0.000524074 0.000788928 0.00169135 0.00199229 0.000788928 0.00102981 0.00199229 0.00230089 0 0 -8.96554e-05 -4.43719e-05 0 0 -4.43719e-05 -3.89012e-05 -8.96554e-05 -4.43719e-05 0.000189197 0.00029067 -4.43719e-05 -3.89012e-05 0.00029067 0.000319802 0 0 -3.89012e-05 -7.10117e-05 0 0 -7.10117e-05 -0.000130272 -3.89012e-05 -7.10117e-05 0.000319802 0.000279408 -7.10117e-05 -0.000130272 0.000279408 0.000188366 0.000189197 0.00029067 0.00102981 0.0012044 0.00029067 0.000319802 0.0012044 0.0012893 0.00102981 0.0012044 0.00230089 0.00256197 0.0012044 0.0012893 0.00256197 0.00274029 0.000319802 0.000279408 0.0012893 0.00128451 0.000279408 0.000188366 0.00128451 0.00121308 0.0012893 0.00128451 0.00274029 0.00282786 0.00128451 0.00121308 0.00282786 0.00284472 0 0 -0.000130272 -0.000200035 0 0 -0.000200035 -0.000260527 -0.000130272 -0.000200035 0.000188366 7.78086e-05 -0.000200035 -0.000260527 7.78086e-05 -1.49812e-05 0 0 -0.000260527 -0.000292385 0 0 -0.000292385 -0.000279932 -0.000260527 -0.000292385 -1.49812e-05 -5.3607e-05 -0.000292385 -0.000279932 -5.3607e-05 -9.04508e-06 0.000188366 7.78086e-05 0.00121308 0.00111587 7.78086e-05 -1.49812e-05 0.00111587 0.00104265 0.00121308 0.00111587 0.00284472 0.00283312 0.00111587 0.00104265 0.00283312 0.00284662 -1.49812e-05 -5.3607e-05 0.00104265 0.00104181 -5.3607e-05 -9.04508e-06 0.00104181 0.00115084 0.00104265 0.00104181 0.00284662 0.00293705 0.00104181 0.00115084 0.00293705 0.00314268 0 0 -0.000279932 -0.000213622 0 0 -0.000213622 -9.13119e-05 -0.000279932 -0.000213622 -9.04508e-06 0.00013564 -0.000213622 -9.13119e-05 0.00013564 0.000383002 0 0 -9.13119e-05 8.16677e-05 0 0 8.16677e-05 0.000293434 -9.13119e-05 8.16677e-05 0.000383002 0.000721375 8.16677e-05 0.000293434 0.000721375 0.001127 -9.04508e-06 0.00013564 0.00115084 0.00138973 0.00013564 0.000383002 0.00138973 0.00175814 0.00115084 0.00138973 0.00314268 0.0034802 0.00138973 0.00175814 0.0034802 0.00394205 0.000383002 0.000721375 0.00175814 0.00223639 0.000721375 0.001127 0.00223639 0.00278932 0.00175814 0.00223639 0.00394205 0.00449891 0.00223639 0.00278932 0.00449891 0.00510598 0 0 0.000293434 0.000527168 0 0 0.000527168 0.00076309 0.000293434 0.000527168 0.001127 0.00156742 0.000527168 0.00076309 0.00156742 0.00200541 0 0 0.00076309 0.000980564 0 0 0.000980564 0.00116015 0.00076309 0.000980564 0.00200541 0.00240294 0.000980564 0.00116015 0.00240294 0.0027249 0.001127 0.00156742 0.00278932 0.00337176 0.00156742 0.00200541 0.00337176 0.00393439 0.00278932 0.00337176 0.00510598 0.00571097 0.00337176 0.00393439 0.00571097 0.00626183 0.00200541 0.00240294 0.00393439 0.00442908 0.00240294 0.0027249 0.00442908 0.00481337 0.00393439 0.00442908 0.00626183 0.00671277 0.00442908 0.00481337 0.00671277 0.00702822 0 0 0.00116015 0.00128553 0 0 0.00128553 0.00134515 0.00116015 0.00128553 0.0027249 0.00294236 0.00128553 0.00134515 0.00294236 0.00303537 0 0 0.00134515 0.00133347 0 0 0.00133347 0.00125175 0.00134515 0.00133347 0.00303537 0.00299497 0.00133347 0.00125175 0.00299497 0.0028243 0.0027249 0.00294236 0.00481337 0.00505402 0.00294236 0.00303537 0.00505402 0.00512965 0.00481337 0.00505402 0.00702822 0.00718472 0.00505402 0.00512965 0.00718472 0.00717142 0.00303537 0.00299497 0.00512965 0.00503249 0.00299497 0.0028243 0.00503249 0.00476909 0.00512965 0.00503249 0.00717142 0.0069897 0.00503249 0.00476909 0.0069897 0.00665209 0 0 0.00125175 0.00110799 0 0 0.00110799 0.000916303 0.00125175 0.00110799 0.0028243 0.00253851 0.00110799 0.000916303 0.00253851 0.00216338 0 0 0.000916303 0.000695387 0 0 0.000695387 0.000466502 0.000916303 0.000695387 0.00216338 0.00173263 0.000695387 0.000466502 0.00173263 0.00128427 0.0028243 0.00253851 0.00476909 0.00435975 0.00253851 0.00216338 0.00435975 0.0038366 0.00476909 0.00435975 0.00665209 0.00618076 0.00435975 0.0038366 0.00618076 0.00560521 0.00216338 0.00173263 0.0038366 0.0032403 0.00173263 0.00128427 0.0032403 0.00261572 0.0038366 0.0032403 0.00560521 0.00495938 0.0032403 0.00261572 0.00495938 0.00427829 0 0 0.000466502 0.000251048 0 0 0.000251048 6.80965e-05 0.000466502 0.000251048 0.00128427 0.000856347 0.000251048 6.80965e-05 0.000856347 0.00048262 0 0 6.80965e-05 -6.78335e-05 0 0 -6.78335e-05 -0.000148472 6.80965e-05 -6.78335e-05 0.00048262 0.000188745 -6.78335e-05 -0.000148472 0.000188745 -1.06122e-05 0.00128427 0.000856347 0.00261572 0.00200705 0.000856347 0.00048262 0.00200705 0.00145307 0.00261572 0.00200705 0.00427829 0.00359461 0.00200705 0.00145307 0.00359461 0.00293564 0.00048262 0.000188745 0.00145307 0.000982982 0.000188745 -1.06122e-05 0.000982982 0.000613484 0.00145307 0.000982982 0.00293564 0.00232104 0.000982982 0.000613484 0.00232104 0.00176164 0 0 -0.000148472 -0.000172745 0 0 -0.000172745 -0.000146854 -0.000148472 -0.000172745 -1.06122e-05 -0.000113349 -0.000172745 -0.000146854 -0.000113349 -0.000129988 0 0 -0.000146854 -8.34488e-05 0 0 -8.34488e-05 0 -0.000146854 -8.34488e-05 -0.000129988 -8.22075e-05 -8.34488e-05 0 -8.22075e-05 0 -1.06122e-05 -0.000113349 0.000613484 0.00034728 -0.000113349 -0.000129988 0.00034728 0.00017325 0.000613484 0.00034728 0.00176164 0.00125929 0.00034728 0.00017325 0.00125929 0.000807672 -0.000129988 -8.22075e-05 0.00017325 6.81964e-05 -8.22075e-05 0 6.81964e-05 0 0.00017325 6.81964e-05 0.000807672 0.000393799 6.81964e-05 0 0.000393799 0 0 0.000373304 0 0.000927717 0.000373304 0.000789583 0.000927717 0.00185104 0 0.000927717 0 0.0015738 0.000927717 0.00185104 0.0015738 0.00305566 0.000789583 0.00128719 0.00185104 0.00276736 0.00128719 0.00189536 0.00276736 0.00367661 0.00185104 0.00276736 0.00305566 0.00436805 0.00276736 0.00367661 0.00436805 0.00545874 0 0.0015738 0 0.00215557 0.0015738 0.00305566 0.00215557