# vtk DataFile Version 3.0
#This file was generated by the deal.II library on 2012/5/30 at 14: 7:54
ASCII
DATASET UNSTRUCTURED_GRID

POINTS 23040 double
0 0 0
0.25 0 0
0 0.25 0
0.25 0.25 0
0.25 0 0
0.5 0 0
0.25 0.25 0
0.5 0.25 0
0 0.25 0
0.25 0.25 0
0 0.5 0
0.25 0.5 0
0.25 0.25 0
0.5 0.25 0
0.25 0.5 0
0.5 0.5 0
0.5 0 0
0.75 0 0
0.5 0.25 0
0.75 0.25 0
0.75 0 0
1 0 0
0.75 0.25 0
1 0.25 0
0.5 0.25 0
0.75 0.25 0
0.5 0.5 0
0.75 0.5 0
0.75 0.25 0
1 0.25 0
0.75 0.5 0
1 0.5 0
0 0.5 0
0.25 0.5 0
0 0.75 0
0.25 0.75 0
0.25 0.5 0
0.5 0.5 0
0.25 0.75 0
0.5 0.75 0
0 0.75 0
0.25 0.75 0
0 1 0
0.25 1 0
0.25 0.75 0
0.5 0.75 0
0.25 1 0
0.5 1 0
0.5 0.5 0
0.75 0.5 0
0.5 0.75 0
0.75 0.75 0
0.75 0.5 0
1 0.5 0
0.75 0.75 0
1 0.75 0
0.5 0.75 0
0.75 0.75 0
0.5 1 0
0.75 1 0
0.75 0.75 0
1 0.75 0
0.75 1 0
1 1 0
1 0 0
1.25 0 0
1 0.25 0
1.25 0.25 0
1.25 0 0
1.5 0 0
1.25 0.25 0
1.5 0.25 0
1 0.25 0
1.25 0.25 0
1 0.5 0
1.25 0.5 0
1.25 0.25 0
1.5 0.25 0
1.25 0.5 0
1.5 0.5 0
1.5 0 0
1.75 0 0
1.5 0.25 0
1.75 0.25 0
1.75 0 0
2 0 0
1.75 0.25 0
2 0.25 0
1.5 0.25 0
1.75 0.25 0
1.5 0.5 0
1.75 0.5 0
1.75 0.25 0
2 0.25 0
1.75 0.5 0
2 0.5 0
1 0.5 0
1.25 0.5 0
1 0.75 0
1.25 0.75 0
1.25 0.5 0
1.5 0.5 0
1.25 0.75 0
1.5 0.75 0
1 0.75 0
1.25 0.75 0
1 1 0
1.25 1 0
1.25 0.75 0
1.5 0.75 0
1.25 1 0
1.5 1 0
1.5 0.5 0
1.75 0.5 0
1.5 0.75 0
1.75 0.75 0
1.75 0.5 0
2 0.5 0
1.75 0.75 0
2 0.75 0
1.5 0.75 0
1.75 0.75 0
1.5 1 0
1.75 1 0
1.75 0.75 0
2 0.75 0
1.75 1 0
2 1 0
2 0 0
2.25 0 0
2 0.25 0
2.25 0.25 0
2.25 0 0
2.5 0 0
2.25 0.25 0
2.5 0.25 0
2 0.25 0
2.25 0.25 0
2 0.5 0
2.25 0.5 0
2.25 0.25 0
2.5 0.25 0
2.25 0.5 0
2.5 0.5 0
2.5 0 0
2.75 0 0
2.5 0.25 0
2.75 0.25 0
2.75 0 0
3 0 0
2.75 0.25 0
3 0.25 0
2.5 0.25 0
2.75 0.25 0
2.5 0.5 0
2.75 0.5 0
2.75 0.25 0
3 0.25 0
2.75 0.5 0
3 0.5 0
2 0.5 0
2.25 0.5 0
2 0.75 0
2.25 0.75 0
2.25 0.5 0
2.5 0.5 0
2.25 0.75 0
2.5 0.75 0
2 0.75 0
2.25 0.75 0
2 1 0
2.25 1 0
2.25 0.75 0
2.5 0.75 0
2.25 1 0
2.5 1 0
2.5 0.5 0
2.75 0.5 0
2.5 0.75 0
2.75 0.75 0
2.75 0.5 0
3 0.5 0
2.75 0.75 0
3 0.75 0
2.5 0.75 0
2.75 0.75 0
2.5 1 0
2.75 1 0
2.75 0.75 0
3 0.75 0
2.75 1 0
3 1 0
3 0 0
3.25 0 0
3 0.25 0
3.25 0.25 0
3.25 0 0
3.5 0 0
3.25 0.25 0
3.5 0.25 0
3 0.25 0
3.25 0.25 0
3 0.5 0
3.25 0.5 0
3.25 0.25 0
3.5 0.25 0
3.25 0.5 0
3.5 0.5 0
3.5 0 0
3.75 0 0
3.5 0.25 0
3.75 0.25 0
3.75 0 0
4 0 0
3.75 0.25 0
4 0.25 0
3.5 0.25 0
3.75 0.25 0
3.5 0.5 0
3.75 0.5 0
3.75 0.25 0
4 0.25 0
3.75 0.5 0
4 0.5 0
3 0.5 0
3.25 0.5 0
3 0.75 0
3.25 0.75 0
3.25 0.5 0
3.5 0.5 0
3.25 0.75 0
3.5 0.75 0
3 0.75 0
3.25 0.75 0
3 1 0
3.25 1 0
3.25 0.75 0
3.5 0.75 0
3.25 1 0
3.5 1 0
3.5 0.5 0
3.75 0.5 0
3.5 0.75 0
3.75 0.75 0
3.75 0.5 0
4 0.5 0
3.75 0.75 0
4 0.75 0
3.5 0.75 0
3.75 0.75 0
3.5 1 0
3.75 1 0
3.75 0.75 0
4 0.75 0
3.75 1 0
4 1 0
4 0 0
4.25 0 0
4 0.25 0
4.25 0.25 0
4.25 0 0
4.5 0 0
4.25 0.25 0
4.5 0.25 0
4 0.25 0
4.25 0.25 0
4 0.5 0
4.25 0.5 0
4.25 0.25 0
4.5 0.25 0
4.25 0.5 0
4.5 0.5 0
4.5 0 0
4.75 0 0
4.5 0.25 0
4.75 0.25 0
4.75 0 0
5 0 0
4.75 0.25 0
5 0.25 0
4.5 0.25 0
4.75 0.25 0
4.5 0.5 0
4.75 0.5 0
4.75 0.25 0
5 0.25 0
4.75 0.5 0
5 0.5 0
4 0.5 0
4.25 0.5 0
4 0.75 0
4.25 0.75 0
4.25 0.5 0
4.5 0.5 0
4.25 0.75 0
4.5 0.75 0
4 0.75 0
4.25 0.75 0
4 1 0
4.25 1 0
4.25 0.75 0
4.5 0.75 0
4.25 1 0
4.5 1 0
4.5 0.5 0
4.75 0.5 0
4.5 0.75 0
4.75 0.75 0
4.75 0.5 0
5 0.5 0
4.75 0.75 0
5 0.75 0
4.5 0.75 0
4.75 0.75 0
4.5 1 0
4.75 1 0
4.75 0.75 0
5 0.75 0
4.75 1 0
5 1 0
5 0 0
5.25 0 0
5 0.25 0
5.25 0.25 0
5.25 0 0
5.5 0 0
5.25 0.25 0
5.5 0.25 0
5 0.25 0
5.25 0.25 0
5 0.5 0
5.25 0.5 0
5.25 0.25 0
5.5 0.25 0
5.25 0.5 0
5.5 0.5 0
5.5 0 0
5.75 0 0
5.5 0.25 0
5.75 0.25 0
5.75 0 0
6 0 0
5.75 0.25 0
6 0.25 0
5.5 0.25 0
5.75 0.25 0
5.5 0.5 0
5.75 0.5 0
5.75 0.25 0
6 0.25 0
5.75 0.5 0
6 0.5 0
5 0.5 0
5.25 0.5 0
5 0.75 0
5.25 0.75 0
5.25 0.5 0
5.5 0.5 0
5.25 0.75 0
5.5 0.75 0
5 0.75 0
5.25 0.75 0
5 1 0
5.25 1 0
5.25 0.75 0
5.5 0.75 0
5.25 1 0
5.5 1 0
5.5 0.5 0
5.75 0.5 0
5.5 0.75 0
5.75 0.75 0
5.75 0.5 0
6 0.5 0
5.75 0.75 0
6 0.75 0
5.5 0.75 0
5.75 0.75 0
5.5 1 0
5.75 1 0
5.75 0.75 0
6 0.75 0
5.75 1 0
6 1 0
6 0 0
6.25 0 0
6 0.25 0
6.25 0.25 0
6.25 0 0
6.5 0 0
6.25 0.25 0
6.5 0.25 0
6 0.25 0
6.25 0.25 0
6 0.5 0
6.25 0.5 0
6.25 0.25 0
6.5 0.25 0
6.25 0.5 0
6.5 0.5 0
6.5 0 0
6.75 0 0
6.5 0.25 0
6.75 0.25 0
6.75 0 0
7 0 0
6.75 0.25 0
7 0.25 0
6.5 0.25 0
6.75 0.25 0
6.5 0.5 0
6.75 0.5 0
6.75 0.25 0
7 0.25 0
6.75 0.5 0
7 0.5 0
6 0.5 0
6.25 0.5 0
6 0.75 0
6.25 0.75 0
6.25 0.5 0
6.5 0.5 0
6.25 0.75 0
6.5 0.75 0
6 0.75 0
6.25 0.75 0
6 1 0
6.25 1 0
6.25 0.75 0
6.5 0.75 0
6.25 1 0
6.5 1 0
6.5 0.5 0
6.75 0.5 0
6.5 0.75 0
6.75 0.75 0
6.75 0.5 0
7 0.5 0
6.75 0.75 0
7 0.75 0
6.5 0.75 0
6.75 0.75 0
6.5 1 0
6.75 1 0
6.75 0.75 0
7 0.75 0
6.75 1 0
7 1 0
7 0 0
7.25 0 0
7 0.25 0
7.25 0.25 0
7.25 0 0
7.5 0 0
7.25 0.25 0
7.5 0.25 0
7 0.25 0
7.25 0.25 0
7 0.5 0
7.25 0.5 0
7.25 0.25 0
7.5 0.25 0
7.25 0.5 0
7.5 0.5 0
7.5 0 0
7.75 0 0
7.5 0.25 0
7.75 0.25 0
7.75 0 0
8 0 0
7.75 0.25 0
8 0.25 0
7.5 0.25 0
7.75 0.25 0
7.5 0.5 0
7.75 0.5 0
7.75 0.25 0
8 0.25 0
7.75 0.5 0
8 0.5 0
7 0.5 0
7.25 0.5 0
7 0.75 0
7.25 0.75 0
7.25 0.5 0
7.5 0.5 0
7.25 0.75 0
7.5 0.75 0
7 0.75 0
7.25 0.75 0
7 1 0
7.25 1 0
7.25 0.75 0
7.5 0.75 0
7.25 1 0
7.5 1 0
7.5 0.5 0
7.75 0.5 0
7.5 0.75 0
7.75 0.75 0
7.75 0.5 0
8 0.5 0
7.75 0.75 0
8 0.75 0
7.5 0.75 0
7.75 0.75 0
7.5 1 0
7.75 1 0
7.75 0.75 0
8 0.75 0
7.75 1 0
8 1 0
8 0 0
8.25 0 0
8 0.25 0
8.25 0.25 0
8.25 0 0
8.5 0 0
8.25 0.25 0
8.5 0.25 0
8 0.25 0
8.25 0.25 0
8 0.5 0
8.25 0.5 0
8.25 0.25 0
8.5 0.25 0
8.25 0.5 0
8.5 0.5 0
8.5 0 0
8.75 0 0
8.5 0.25 0
8.75 0.25 0
8.75 0 0
9 0 0
8.75 0.25 0
9 0.25 0
8.5 0.25 0
8.75 0.25 0
8.5 0.5 0
8.75 0.5 0
8.75 0.25 0
9 0.25 0
8.75 0.5 0
9 0.5 0
8 0.5 0
8.25 0.5 0
8 0.75 0
8.25 0.75 0
8.25 0.5 0
8.5 0.5 0
8.25 0.75 0
8.5 0.75 0
8 0.75 0
8.25 0.75 0
8 1 0
8.25 1 0
8.25 0.75 0
8.5 0.75 0
8.25 1 0
8.5 1 0
8.5 0.5 0
8.75 0.5 0
8.5 0.75 0
8.75 0.75 0
8.75 0.5 0
9 0.5 0
8.75 0.75 0
9 0.75 0
8.5 0.75 0
8.75 0.75 0
8.5 1 0
8.75 1 0
8.75 0.75 0
9 0.75 0
8.75 1 0
9 1 0
9 0 0
9.25 0 0
9 0.25 0
9.25 0.25 0
9.25 0 0
9.5 0 0
9.25 0.25 0
9.5 0.25 0
9 0.25 0
9.25 0.25 0
9 0.5 0
9.25 0.5 0
9.25 0.25 0
9.5 0.25 0
9.25 0.5 0
9.5 0.5 0
9.5 0 0
9.75 0 0
9.5 0.25 0
9.75 0.25 0
9.75 0 0
10 0 0
9.75 0.25 0
10 0.25 0
9.5 0.25 0
9.75 0.25 0
9.5 0.5 0
9.75 0.5 0
9.75 0.25 0
10 0.25 0
9.75 0.5 0
10 0.5 0
9 0.5 0
9.25 0.5 0
9 0.75 0
9.25 0.75 0
9.25 0.5 0
9.5 0.5 0
9.25 0.75 0
9.5 0.75 0
9 0.75 0
9.25 0.75 0
9 1 0
9.25 1 0
9.25 0.75 0
9.5 0.75 0
9.25 1 0
9.5 1 0
9.5 0.5 0
9.75 0.5 0
9.5 0.75 0
9.75 0.75 0
9.75 0.5 0
10 0.5 0
9.75 0.75 0
10 0.75 0
9.5 0.75 0
9.75 0.75 0
9.5 1 0
9.75 1 0
9.75 0.75 0
10 0.75 0
9.75 1 0
10 1 0
10 0 0
10.25 0 0
10 0.25 0
10.25 0.25 0
10.25 0 0
10.5 0 0
10.25 0.25 0
10.5 0.25 0
10 0.25 0
10.25 0.25 0
10 0.5 0
10.25 0.5 0
10.25 0.25 0
10.5 0.25 0
10.25 0.5 0
10.5 0.5 0
10.5 0 0
10.75 0 0
10.5 0.25 0
10.75 0.25 0
10.75 0 0
11 0 0
10.75 0.25 0
11 0.25 0
10.5 0.25 0
10.75 0.25 0
10.5 0.5 0
10.75 0.5 0
10.75 0.25 0
11 0.25 0
10.75 0.5 0
11 0.5 0
10 0.5 0
10.25 0.5 0
10 0.75 0
10.25 0.75 0
10.25 0.5 0
10.5 0.5 0
10.25 0.75 0
10.5 0.75 0
10 0.75 0
10.25 0.75 0
10 1 0
10.25 1 0
10.25 0.75 0
10.5 0.75 0
10.25 1 0
10.5 1 0
10.5 0.5 0
10.75 0.5 0
10.5 0.75 0
10.75 0.75 0
10.75 0.5 0
11 0.5 0
10.75 0.75 0
11 0.75 0
10.5 0.75 0
10.75 0.75 0
10.5 1 0
10.75 1 0
10.75 0.75 0
11 0.75 0
10.75 1 0
11 1 0
11 0 0
11.25 0 0
11 0.25 0
11.25 0.25 0
11.25 0 0
11.5 0 0
11.25 0.25 0
11.5 0.25 0
11 0.25 0
11.25 0.25 0
11 0.5 0
11.25 0.5 0
11.25 0.25 0
11.5 0.25 0
11.25 0.5 0
11.5 0.5 0
11.5 0 0
11.75 0 0
11.5 0.25 0
11.75 0.25 0
11.75 0 0
12 0 0
11.75 0.25 0
12 0.25 0
11.5 0.25 0
11.75 0.25 0
11.5 0.5 0
11.75 0.5 0
11.75 0.25 0
12 0.25 0
11.75 0.5 0
12 0.5 0
11 0.5 0
11.25 0.5 0
11 0.75 0
11.25 0.75 0
11.25 0.5 0
11.5 0.5 0
11.25 0.75 0
11.5 0.75 0
11 0.75 0
11.25 0.75 0
11 1 0
11.25 1 0
11.25 0.75 0
11.5 0.75 0
11.25 1 0
11.5 1 0
11.5 0.5 0
11.75 0.5 0
11.5 0.75 0
11.75 0.75 0
11.75 0.5 0
12 0.5 0
11.75 0.75 0
12 0.75 0
11.5 0.75 0
11.75 0.75 0
11.5 1 0
11.75 1 0
11.75 0.75 0
12 0.75 0
11.75 1 0
12 1 0
12 0 0
12.25 0 0
12 0.25 0
12.25 0.25 0
12.25 0 0
12.5 0 0
12.25 0.25 0
12.5 0.25 0
12 0.25 0
12.25 0.25 0
12 0.5 0
12.25 0.5 0
12.25 0.25 0
12.5 0.25 0
12.25 0.5 0
12.5 0.5 0
12.5 0 0
12.75 0 0
12.5 0.25 0
12.75 0.25 0
12.75 0 0
13 0 0
12.75 0.25 0
13 0.25 0
12.5 0.25 0
12.75 0.25 0
12.5 0.5 0
12.75 0.5 0
12.75 0.25 0
13 0.25 0
12.75 0.5 0
13 0.5 0
12 0.5 0
12.25 0.5 0
12 0.75 0
12.25 0.75 0
12.25 0.5 0
12.5 0.5 0
12.25 0.75 0
12.5 0.75 0
12 0.75 0
12.25 0.75 0
12 1 0
12.25 1 0
12.25 0.75 0
12.5 0.75 0
12.25 1 0
12.5 1 0
12.5 0.5 0
12.75 0.5 0
12.5 0.75 0
12.75 0.75 0
12.75 0.5 0
13 0.5 0
12.75 0.75 0
13 0.75 0
12.5 0.75 0
12.75 0.75 0
12.5 1 0
12.75 1 0
12.75 0.75 0
13 0.75 0
12.75 1 0
13 1 0
13 0 0
13.25 0 0
13 0.25 0
13.25 0.25 0
13.25 0 0
13.5 0 0
13.25 0.25 0
13.5 0.25 0
13 0.25 0
13.25 0.25 0
13 0.5 0
13.25 0.5 0
13.25 0.25 0
13.5 0.25 0
13.25 0.5 0
13.5 0.5 0
13.5 0 0
13.75 0 0
13.5 0.25 0
13.75 0.25 0
13.75 0 0
14 0 0
13.75 0.25 0
14 0.25 0
13.5 0.25 0
13.75 0.25 0
13.5 0.5 0
13.75 0.5 0
13.75 0.25 0
14 0.25 0
13.75 0.5 0
14 0.5 0
13 0.5 0
13.25 0.5 0
13 0.75 0
13.25 0.75 0
13.25 0.5 0
13.5 0.5 0
13.25 0.75 0
13.5 0.75 0
13 0.75 0
13.25 0.75 0
13 1 0
13.25 1 0
13.25 0.75 0
13.5 0.75 0
13.25 1 0
13.5 1 0
13.5 0.5 0
13.75 0.5 0
13.5 0.75 0
13.75 0.75 0
13.75 0.5 0
14 0.5 0
13.75 0.75 0
14 0.75 0
13.5 0.75 0
13.75 0.75 0
13.5 1 0
13.75 1 0
13.75 0.75 0
14 0.75 0
13.75 1 0
14 1 0
14 0 0
14.25 0 0
14 0.25 0
14.25 0.25 0
14.25 0 0
14.5 0 0
14.25 0.25 0
14.5 0.25 0
14 0.25 0
14.25 0.25 0
14 0.5 0
14.25 0.5 0
14.25 0.25 0
14.5 0.25 0
14.25 0.5 0
14.5 0.5 0
14.5 0 0
14.75 0 0
14.5 0.25 0
14.75 0.25 0
14.75 0 0
15 0 0
14.75 0.25 0
15 0.25 0
14.5 0.25 0
14.75 0.25 0
14.5 0.5 0
14.75 0.5 0
14.75 0.25 0
15 0.25 0
14.75 0.5 0
15 0.5 0
14 0.5 0
14.25 0.5 0
14 0.75 0
14.25 0.75 0
14.25 0.5 0
14.5 0.5 0
14.25 0.75 0
14.5 0.75 0
14 0.75 0
14.25 0.75 0
14 1 0
14.25 1 0
14.25 0.75 0
14.5 0.75 0
14.25 1 0
14.5 1 0
14.5 0.5 0
14.75 0.5 0
14.5 0.75 0
14.75 0.75 0
14.75 0.5 0
15 0.5 0
14.75 0.75 0
15 0.75 0
[...]
POINT_DATA 23040
SCALARS State_OptProblem double 1
LOOKUP_TABLE default
0 0 0 0.00124026 0 0 0.00124026 0.00247123 0 0.00124026 0 0.00248909 0.00124026 0.00247123 0.00248909 0.00495959 0 0 0.00247123 0.00368373 0 0 0.00368373 0.00486873 0.00247123 0.00368373 0.00495959 0.00739309 0.00368373 0.00486873 0.00739309 0.00977155 0 0.00248909 0 0.00375476 0.00248909 0.00495959 0.00375476 0.00748161 0 0.00375476 0 0.00504498 0.00375476 0.00748161 0.00504498 0.0100527 0.00495959 0.00739309 0.00748161 0.0111529 0.00739309 0.00977155 0.0111529 0.0147414 0.00748161 0.0111529 0.0100527 0.0149862 0.0111529 0.0147414 0.0149862 0.0198091 0 0 0.00486873 0.00601755 0 0 0.00601755 0.0071219 0.00486873 0.00601755 0.00977155 0.0120775 0.00601755 0.0071219 0.0120775 0.0142943 0 0 0.0071219 0.00817408 0 0 0.00817408 0.00916712 0.0071219 0.00817408 0.0142943 0.0164066 0.00817408 0.00916712 0.0164066 0.0184002 0.00977155 0.0120775 0.0147414 0.0182209 0.0120775 0.0142943 0.0182209 0.0215663 0.0147414 0.0182209 0.0198091 0.0244862 0.0182209 0.0215663 0.0244862 0.0289836 0.0142943 0.0164066 0.0215663 0.0247541 0.0164066 0.0184002 0.0247541 0.0277631 0.0215663 0.0247541 0.0289836 0.0332699 0.0247541 0.0277631 0.0332699 0.0373161 0 0 0.00916712 0.010095 0 0 0.010095 0.0109526 0.00916712 0.010095 0.0184002 0.0202629 0.010095 0.0109526 0.0202629 0.0219847 0 0 0.0109526 0.0117362 0 0 0.0117362 0.0124433 0.0109526 0.0117362 0.0219847 0.0235577 0.0117362 0.0124433 0.0235577 0.0249771 0.0184002 0.0202629 0.0277631 0.0305747 0.0202629 0.0219847 0.0305747 0.0331735 0.0277631 0.0305747 0.0373161 0.041097 0.0305747 0.0331735 0.041097 0.0445917 0.0219847 0.0235577 0.0331735 0.0355477 0.0235577 0.0249771 0.0355477 0.0376895 0.0331735 0.0355477 0.0445917 0.047784 0.0355477 0.0376895 0.047784 0.0506634 0 0 0.0124433 0.0130728 0 0 0.0130728 0.0136251 0.0124433 0.0130728 0.0249771 0.0262406 0.0130728 0.0136251 0.0262406 0.027349 0 0 0.0136251 0.0141022 0 0 0.0141022 0.0145072 0.0136251 0.0141022 0.027349 0.0283061 0.0141022 0.0145072 0.0283061 0.0291183 0.0249771 0.0262406 0.0376895 0.0395958 0.0262406 0.027349 0.0395958 0.0412675 0.0376895 0.0395958 0.0506634 0.0532252 0.0395958 0.0412675 0.0532252 0.0554708 0.027349 0.0283061 0.0412675 0.0427103 0.0283061 0.0291183 0.0427103 0.043934 0.0412675 0.0427103 0.0554708 0.0574076 0.0427103 0.043934 0.0574076 0.059049 0 0 0.0145072 0.0148447 0 0 0.0148447 0.0151203 0.0145072 0.0148447 0.0291183 0.0297947 0.0148447 0.0151203 0.0297947 0.030347 0 0 0.0151203 0.0153408 0 0 0.0153408 0.0155135 0.0151203 0.0153408 0.030347 0.0307883 0.0153408 0.0155135 0.0307883 0.0311337 0.0291183 0.0297947 0.043934 0.0449524 0.0297947 0.030347 0.0449524 0.045783 0.043934 0.0449524 0.059049 0.0604136 0.0449524 0.045783 0.0604136 0.061525 0.030347 0.0307883 0.045783 0.046446 0.0307883 0.0311337 0.046446 0.046964 0.045783 0.046446 0.061525 0.0624105 0.046446 0.046964 0.0624105 0.0631008 0 0 0.0155135 0.0156463 0 0 0.0156463 0.0157473 0.0155135 0.0156463 0.0311337 0.0313989 0.0156463 0.0157473 0.0313989 0.0316004 0 0 0.0157473 0.0158248 0 0 0.0158248 0.0158867 0.0157473 0.0158248 0.0316004 0.0317547 0.0158248 0.0158867 0.0317547 0.0318777 0.0311337 0.0313989 0.046964 0.0473609 0.0313989 0.0316004 0.0473609 0.0476617 0.046964 0.0473609 0.0631008 0.0636282 0.0473609 0.0476617 0.0636282 0.0640264 0.0316004 0.0317547 0.0476617 0.0478912 0.0317547 0.0318777 0.0478912 0.0480737 0.0476617 0.0478912 0.0640264 0.0643289 0.0478912 0.0480737 0.0643289 0.0645683 0 0 0.0158867 0.0159407 0 0 0.0159407 0.0159938 0.0158867 0.0159407 0.0318777 0.0319848 0.0159407 0.0159938 0.0319848 0.03209 0 0 0.0159938 0.0160523 0 0 0.0160523 0.0161221 0.0159938 0.0160523 0.03209 0.0322063 0.0160523 0.0161221 0.0322063 0.0323448 0.0318777 0.0319848 0.0480737 0.0482321 0.0319848 0.03209 0.0482321 0.0483878 0.0480737 0.0482321 0.0645683 0.0647755 0.0482321 0.0483878 0.0647755 0.0649789 0.03209 0.0322063 0.0483878 0.0485599 0.0322063 0.0323448 0.0485599 0.0487652 0.0483878 0.0485599 0.0649789 0.065204 0.0485599 0.0487652 0.065204 0.0654734 0 0 0.0161221 0.016208 0 0 0.016208 0.016314 0.0161221 0.016208 0.0323448 0.0325154 0.016208 0.016314 0.0325154 0.0327263 0 0 0.016314 0.0164438 0 0 0.0164438 0.0165998 0.016314 0.0164438 0.0327263 0.0329842 0.0164438 0.0165998 0.0329842 0.0332945 0.0323448 0.0325154 0.0487652 0.0490184 0.0325154 0.0327263 0.0490184 0.0493316 0.0487652 0.0490184 0.0654734 0.065806 0.0490184 0.0493316 0.065806 0.0662177 0.0327263 0.0329842 0.0493316 0.0497146 0.0329842 0.0332945 0.0497146 0.0501753 0.0493316 0.0497146 0.0662177 0.0667214 0.0497146 0.0501753 0.0667214 0.0673272 0 0 0.0165998 0.0167844 0 0 0.0167844 0.0169989 0.0165998 0.0167844 0.0332945 0.0336613 0.0167844 0.0169989 0.0336613 0.0340878 0 0 0.0169989 0.0172446 0 0 0.0172446 0.0175216 0.0169989 0.0172446 0.0340878 0.0345758 0.0172446 0.0175216 0.0345758 0.0351264 0.0332945 0.0336613 0.0501753 0.05072 0.0336613 0.0340878 0.05072 0.0513529 0.0501753 0.05072 0.0673272 0.0680429 0.05072 0.0513529 0.0680429 0.0688743 0.0340878 0.0345758 0.0513529 0.0520772 0.0345758 0.0351264 0.0520772 0.0528941 0.0513529 0.0520772 0.0688743 0.0698252 0.0520772 0.0528941 0.0698252 0.0708976 0 0 0.0175216 0.01783 0 0 0.01783 0.0181688 0.0175216 0.01783 0.0351264 0.0357393 0.01783 0.0181688 0.0357393 0.0364127 0 0 0.0181688 0.018536 0 0 0.018536 0.0189287 0.0181688 0.018536 0.0364127 0.0371431 0.018536 0.0189287 0.0371431 0.0379246 0.0351264 0.0357393 0.0528941 0.0538036 0.0357393 0.0364127 0.0538036 0.0548033 0.0528941 0.0538036 0.0708976 0.0720915 0.0538036 0.0548033 0.0720915 0.0734046 0.0364127 0.0371431 0.0548033 0.0558884 0.0371431 0.0379246 0.0558884 0.0570508 0.0548033 0.0558884 0.0734046 0.0748313 0.0558884 0.0570508 0.0748313 0.0763618 0 0 0.0189287 0.0193425 0 0 0.0193425 0.0197711 0.0189287 0.0193425 0.0379246 0.0387488 0.0193425 0.0197711 0.0387488 0.0396036 0 0 0.0197711 0.0202067 0 0 0.0202067 0.0206391 0.0197711 0.0202067 0.0396036 0.0404733 0.0202067 0.0206391 0.0404733 0.0413379 0.0379246 0.0387488 0.0570508 0.0582783 0.0387488 0.0396036 0.0582783 0.0595537 0.0570508 0.0582783 0.0763618 0.0779811 0.0582783 0.0595537 0.0779811 0.0796679 0.0396036 0.0404733 0.0595537 0.0608542 0.0404733 0.0413379 0.0608542 0.0621504 0.0595537 0.0608542 0.0796679 0.0813929 0.0608542 0.0621504 0.0813929 0.0831183 0 0 0.0206391 0.0210563 0 0 0.0210563 0.021445 0.0206391 0.0210563 0.0413379 0.0421737 0.0210563 0.021445 0.0421737 0.0429535 0 0 0.021445 0.0217907 0 0 0.0217907 0.0220794 0.021445 0.0217907 0.0429535 0.0436482 0.0217907 0.0220794 0.0436482 0.0442289 0.0413379 0.0421737 0.0621504 0.0634068 0.0421737 0.0429535 0.0634068 0.0645823 0.0621504 0.0634068 0.0831183 0.0847973 0.0634068 0.0645823 0.0847973 0.0863747 0.0429535 0.0436482 0.0645823 0.0656323 0.0436482 0.0442289 0.0656323 0.066512 0.0645823 0.0656323 0.0863747 0.0877892 0.0656323 0.066512 0.0877892 0.0889781 0 0 0.0220794 0.0222984 0 0 0.0222984 0.022438 0.0220794 0.0222984 0.0442289 0.0446699 0.0222984 0.022438 0.0446699 0.0449509 0 0 0.022438 0.0224922 0 0 0.0224922 0.0224592 0.022438 0.0224922 0.0449509 0.0450596 0.0224922 0.0224592 0.0450596 0.0449927 0.0442289 0.0446699 0.066512 0.0671807 0.0446699 0.0449509 0.0671807 0.0676066 0.066512 0.0671807 0.0889781 0.0898835 0.0671807 0.0676066 0.0898835 0.0904599 0.0449509 0.0450596 0.0676066 0.0677707 0.0450596 0.0449927 0.0677707 0.0676681 0.0676066 0.0677707 0.0904599 0.0906804 0.0677707 0.0676681 0.0906804 0.0905392 0 0 0.0224592 0.0223414 0 0 0.0223414 0.0221447 0.0224592 0.0223414 0.0449927 0.0447554 0.0223414 0.0221447 0.0447554 0.04436 0 0 0.0221447 0.0218772 0 0 0.0218772 0.0215486 0.0221447 0.0218772 0.04436 0.0438234 0.0218772 0.0215486 0.0438234 0.0431653 0.0449927 0.0447554 0.0676681 0.0673079 0.0447554 0.04436 0.0673079 0.0667099 0.0676681 0.0673079 0.0905392 0.0900508 0.0673079 0.0667099 0.0900508 0.0892449 0.04436 0.0438234 0.0667099 0.0659012 0.0438234 0.0431653 0.0659012 0.0649118 0.0667099 0.0659012 0.0892449 0.0881599 0.0659012 0.0649118 0.0881599 0.0868378 0 0 0.0215486 0.0211689 0 0 0.0211689 0.0207476 0.0215486 0.0211689 0.0431653 0.0424056 0.0211689 0.0207476 0.0424056 0.0415638 0 0 0.0207476 0.0202936 0 0 0.0202936 0.0198152 0.0207476 0.0202936 0.0415638 0.0406575 0.0202936 0.0198152 0.0406575 0.0397027 0.0431653 0.0424056 0.0649118 0.0637724 0.0424056 0.0415638 0.0637724 0.0625119 0.0649118 0.0637724 0.0868378 0.08532 0.0637724 0.0625119 0.08532 0.0836447 0.0415638 0.0406575 0.0625119 0.0611567 0.0406575 0.0397027 0.0611567 0.0597302 0.0625119 0.0611567 0.0836447 0.0818465 0.0611567 0.0597302 0.0818465 0.079956 0 0 0.0198152 0.0193192 0 0 0.0193192 0.0188121 0.0198152 0.0193192 0.0397027 0.0387135 0.0193192 0.0188121 0.0387135 0.0377022 0 0 0.0188121 0.0182993 0 0 0.0182993 0.0177858 0.0188121 0.0182993 0.0377022 0.0366797 0.0182993 0.0177858 0.0366797 0.0356557 0.0397027 0.0387135 0.0597302 0.0582533 0.0387135 0.0377022 0.0582533 0.0567439 0.0597302 0.0582533 0.079956 0.0780001 0.0582533 0.0567439 0.0780001 0.0760021 0.0377022 0.0366797 0.0567439 0.055218 0.0366797 0.0356557 0.055218 0.0536898 0.0567439 0.055218 0.0760021 0.0739826 0.055218 0.0536898 0.0739826 0.07196 0 0 0.0177858 0.017276 0 0 0.017276 0.0167741 0.0177858 0.017276 0.0356557 0.034639 0.017276 0.0167741 0.034639 0.033638 0 0 0.0167741 0.0162842 0 0 0.0162842 0.0158105 0.0167741 0.0162842 0.033638 0.0326607 0.0162842 0.0158105 0.0326607 0.0317153 0.0356557 0.034639 0.0536898 0.0521723 0.034639 0.033638 0.0521723 0.0506777 0.0536898 0.0521723 0.07196 0.0699509 0.0521723 0.0506777 0.0699509 0.0679711 0.033638 0.0326607 0.0506777 0.0492178 0.0326607 0.0317153 0.0492178 0.0478046 0.0506777 0.0492178 0.0679711 0.0660361 0.0492178 0.0478046 0.0660361 0.0641613 0 0 0.0158105 0.0153571 0 0 0.0153571 0.0149284 0.0158105 0.0153571 0.0317153 0.03081 0.0153571 0.0149284 0.03081 0.0299535 0 0 0.0149284 0.0145288 0 0 0.0145288 0.0141629 0.0149284 0.0145288 0.0299535 0.0291549 0.0145288 0.0141629 0.0291549 0.0284234 0.0317153 0.03081 0.0478046 0.0464506 0.03081 0.0299535 0.0464506 0.0451685 0.0478046 0.0464506 0.0641613 0.0623632 0.0464506 0.0451685 0.0623632 0.0606589 0.0299535 0.0291549 0.0451685 0.0439721 0.0291549 0.0284234 0.0439721 0.0428753 0.0451685 0.0439721 0.0606589 0.0590665 0.0439721 0.0428753 0.0590665 0.057605 0 0 0.0141629 0.0138354 0 0 0.0138354 0.0135509 0.0141629 0.0138354 0.0284234 0.0277683 0.0138354 0.0135509 0.0277683 0.0271989 0 0 0.0135509 0.0133136 0 0 0.0133136 0.0131274 0.0135509 0.0133136 0.0271989 0.0267238 0.0133136 0.0131274 0.0267238 0.0263509 0.0284234 0.0277683 0.0428753 0.0418923 0.0277683 0.0271989 0.0418923 0.0410373 0.0428753 0.0418923 0.057605 0.0562937 0.0418923 0.0410373 0.0562937 0.0551518 0.0271989 0.0267238 0.0410373 0.0403235 0.0267238 0.0263509 0.0403235 0.0397628 0.0410373 0.0403235 0.0551518 0.0541976 0.0403235 0.0397628 0.0541976 0.0534477 0 0 0.0131274 0.0129954 0 0 0.0129954 0.0129202 0.0131274 0.0129954 0.0263509 0.0260866 0.0129954 0.0129202 0.0260866 0.0259359 0 0 0.0129202 0.0129031 0 0 0.0129031 0.0129444 0.0129202 0.0129031 0.0259359 0.0259017 0.0129031 0.0129444 0.0259017 0.0259847 0.0263509 0.0260866 0.0397628 0.0393654 0.0260866 0.0259359 0.0393654 0.0391388 0.0397628 0.0393654 0.0534477 0.0529159 0.0393654 0.0391388 0.0529159 0.0526128 0.0259359 0.0259017 0.0391388 0.0390876 0.0259017 0.0259847 0.0390876 0.0392129 0.0391388 0.0390876 0.0526128 0.0525447 0.0390876 0.0392129 0.0525447 0.0527134 0 0 0.0129444 0.0130434 0 0 0.0130434 0.0131981 0.0129444 0.0130434 0.0259847 0.0261833 0.0130434 0.0131981 0.0261833 0.0264936 0 0 0.0131981 0.0134054 0 0 0.0134054 0.0136612 0.0131981 0.0134054 0.0264936 0.0269093 0.0134054 0.0136612 0.0269093 0.027422 0.0259847 0.0261833 0.0392129 0.0395124 0.0261833 0.0264936 0.0395124 0.03998 0.0392129 0.0395124 0.0527134 0.0531157 0.0395124 0.03998 0.0531157 0.0537434 0.0264936 0.0269093 0.03998 0.0406062 0.0269093 0.027422 0.0406062 0.0413783 0.03998 0.0406062 0.0537434 0.0545835 0.0406062 0.0413783 0.0545835 0.0556186 0 0 0.0136612 0.0139603 0 0 0.0139603 0.0142968 0.0136612 0.0139603 0.027422 0.0280214 0.0139603 0.0142968 0.0280214 0.0286956 0 0 0.0142968 0.014664 0 0 0.014664 0.0150548 0.0142968 0.014664 0.0286956 0.0294311 0.014664 0.0150548 0.0294311 0.0302136 0.027422 0.0280214 0.0413783 0.0422805 0.0280214 0.0286956 0.0422805 0.0432948 0.0413783 0.0422805 0.0556186 0.0568274 0.0422805 0.0432948 0.0568274 0.0581854 0.0286956 0.0294311 0.0432948 0.0444009 0.0294311 0.0302136 0.0444009 0.045577 0.0432948 0.0444009 0.0581854 0.0596653 0.0444009 0.045577 0.0596653 0.0612379 0 0 0.0150548 0.0154614 0 0 0.0154614 0.0158759 0.0150548 0.0154614 0.0302136 0.0310277 0.0154614 0.0158759 0.0310277 0.0318573 0 0 0.0158759 0.0162899 0 0 0.0162899 0.0166951 0.0158759 0.0162899 0.0318573 0.0326858 0.0162899 0.0166951 0.0326858 0.0334962 0.0302136 0.0310277 0.045577 0.0468 0.0310277 0.0318573 0.0468 0.0480458 0.045577 0.0468 0.0612379 0.0628721 0.0468 0.0480458 0.0628721 0.0645358 0.0318573 0.0326858 0.0480458 0.0492896 0.0326858 0.0334962 0.0492896 0.0505058 0.0480458 0.0492896 0.0645358 0.0661958 0.0492896 0.0505058 0.0661958 0.0678182 0 0 0.0166951 0.0170826 0 0 0.0170826 0.017444 0.0166951 0.0170826 0.0334962 0.0342715 0.0170826 0.017444 0.0342715 0.0349941 0 0 0.017444 0.0177704 0 0 0.0177704 0.0180531 0.017444 0.0177704 0.0349941 0.0356466 0.0177704 0.0180531 0.0356466 0.0362117 0.0334962 0.0342715 0.0505058 0.0516687 0.0342715 0.0349941 0.0516687 0.0527523 0.0505058 0.0516687 0.0678182 0.0693688 0.0516687 0.0527523 0.0693688 0.0708129 0.0349941 0.0356466 0.0527523 0.0537305 0.0356466 0.0362117 0.0537305 0.0545773 0.0527523 0.0537305 0.0708129 0.0721159 0.0537305 0.0545773 0.0721159 0.0732432 0 0 0.0180531 0.0182836 0 0 0.0182836 0.0184535 0.0180531 0.0182836 0.0362117 0.0366722 0.0182836 0.0184535 0.0366722 0.0370113 0 0 0.0184535 0.0185545 0 0 0.0185545 0.0185791 0.0184535 0.0185545 0.0370113 0.0372127 0.0185545 0.0185791 0.0372127 0.037261 0.0362117 0.0366722 0.0545773 0.0552669 0.0366722 0.0370113 0.0552669 0.055774 0.0545773 0.0552669 0.0732432 0.0741604 0.0552669 0.055774 0.0741604 0.0748338 0.0370113 0.0372127 0.055774 0.0560743 0.0372127 0.037261 0.0560743 0.0561443 0.055774 0.0560743 0.0748338 0.0752308 0.0560743 0.0561443 0.0752308 0.07532 0 0 0.0185791 0.0185201 0 0 0.0185201 0.018371 0.0185791 0.0185201 0.037261 0.0371417 0.0185201 0.018371 0.0371417 0.0368419 0 0 0.018371 0.0181261 0 0 0.0181261 0.0177811 0.018371 0.0181261 0.0368419 0.0363503 0.0181261 0.0177811 0.0363503 0.0356578 0.037261 0.0371417 0.0561443 0.0559625 0.0371417 0.0368419 0.0559625 0.055509 0.0561443 0.0559625 0.07532 0.0750723 0.0559625 0.055509 0.0750723 0.074461 0.0368419 0.0363503 0.055509 0.0547669 0.0363503 0.0356578 0.0547669 0.0537222 0.055509 0.0547669 0.074461 0.073463 0.0547669 0.0537222 0.073463 0.0720595 0 0 0.0177811 0.0173324 0 0 0.0173324 0.0167781 0.0177811 0.0173324 0.0356578 0.0347575 0.0173324 0.0167781 0.0347575 0.0336454 0 0 0.0167781 0.0161176 0 0 0.0161176 0.0153517 0.0167781 0.0161176 0.0336454 0.0323202 0.0161176 0.0153517 0.0323202 0.0307837 0.0356578 0.0347575 0.0537222 0.0523646 0.0347575 0.0336454 0.0523646 0.0506878 0.0537222 0.0523646 0.0720595 0.0702362 0.0523646 0.0506878 0.0702362 0.0679848 0.0336454 0.0323202 0.0506878 0.0486899 0.0323202 0.0307837 0.0486899 0.0463734 0.0506878 0.0486899 0.0679848 0.0653023 0.0486899 0.0463734 0.0653023 0.0621924 0 0 0.0153517 0.0144827 0 0 0.0144827 0.0135146 0.0153517 0.0144827 0.0307837 0.0290405 0.0144827 0.0135146 0.0290405 0.0270985 0 0 0.0135146 0.0124524 0 0 0.0124524 0.0113026 0.0135146 0.0124524 0.0270985 0.0249679 0.0124524 0.0113026 0.0249679 0.0226616 0.0307837 0.0290405 0.0463734 0.0437457 0.0290405 0.0270985 0.0437457 0.0408182 0.0463734 0.0437457 0.0621924 0.0586648 0.0437457 0.0408182 0.0586648 0.0547353 0.0270985 0.0249679 0.0408182 0.0376069 0.0249679 0.0226616 0.0376069 0.0341312 0.0408182 0.0376069 0.0547353 0.0504252 0.0376069 0.0341312 0.0504252 0.0457611 0 0 0.0113026 0.0100727 0 0 0.0100727 0.00877098 0.0113026 0.0100727 0.0226616 0.0201949 0.0100727 0.00877098 0.0201949 0.0175845 0 0 0.00877098 0.00740673 0 0 0.00740673 0.00598965 0.00877098 0.00740673 0.0175845 0.0148489 0.00740673 0.00598965 0.0148489 0.0120076 0.0226616 0.0201949 0.0341312 0.0304141 0.0201949 0.0175845 0.0304141 0.0264812 0.0341312 0.0304141 0.0457611 0.0407739 0.0304141 0.0264812 0.0407739 0.0354983 0.0175845 0.0148489 0.0264812 0.0223603 0.0148489 0.0120076 0.0223603 0.0180808 0.0264812 0.0223603 0.0354983 0.0299717 0.0223603 0.0180808 0.0299717 0.0242336 0 0 0.00598965 0.0045299 0 0 0.0045299 0.00303792 0.00598965 0.0045299 0.0120076 0.00908094 0.0045299 0.00303792 0.00908094 0.0060899 0 0 0.00303792 0.00152436 0 0 0.00152436 0 0.00303792 0.00152436 0.0060899 0.00305575 0.00152436 0 0.00305575 0 0.0120076 0.00908094 0.0180808 0.0136733 0.00908094 0.0060899 0.0136733 0.00916935 0.0180808 0.0136733 0.0242336 0.0183252 0.0136733 0.00916935 0.0183252 0.0122884 0.0060899 0.00305575 0.00916935 0.00460085 0.00305575 0 0.00460085 0 0.00916935 0.00460085 0.0122884 0.00616567 0.00460085 0 0.00616567 0 0 0.00504498 0 0.00636653 0.00504498 0.0100527 0.00636653 0.0126864 0 0.00636653 0 0.00772501 0.00636653 0.0126864 0.00772501 0.0153941 0.0100527 0.0149862 0.0126864 0.0189134 0.0149862 0.0198091 0.0189134 0.0250019 0.0126864 0.0189134 0.0153941 0.0229516 0.0189134 0.0250019 0.0229516 0.0303426 0 0.00772501 0 0.00912447 0.00772501 0.0153941 0.00912447 0.0181838 0 0.00912447 0 0.0105671 0.00912447 0.0181838 0.0105671 0.0210601 0.0153941 0.0229516 0.0181838 0.0271132 0.0229516 0.0303426 0.0271132 0.0358482 0.0181838 0.0271132 0.0210601 0.031405 0.0271132 0.0358482 0.031405 0.0415282 0.0198091 0.0244862 0.0250019 0.0309074 0.0244862 0.0289836 0.0309074 0.0365873 0.0250019 0.0309074 0.0303426 0.0375133 0.0309074 0.0365873 0.0375133 0.0444119 0.0289836 0.0332699 0.0365873 0.0420014 0.0332699 0.0373161 0.0420014 0.047113 0.0365873 0.0420014 0.0444119 0.0509891 0.0420014 0.047113 0.0509891 0.0572 0.0303426 0.0375133 0.0358482 0.0443254 0.0375133 0.0444119 0.0443254 0.0524836 0.0358482 0.0443254 0.0415282 0.0513565 0.0443254 0.0524836 0.0513565 0.0608185 0.0444119 0.0509891 0.0524836 0.0602641 0.0509891 0.0572 0.0602641 0.0676128 0.0524836 0.0602641 0.0608185 0.0698458 0.0602641 0.0676128 0.0698458 0.0783743 0.0373161 0.041097 0.047113 0.0518899 0.041097 0.0445917 0.0518899 0.0563049 0.047113 0.0518899 0.0572 0.0630046 0.0518899 0.0563049 0.0630046 0.0683694 0.0445917 0.047784 0.0563049 0.0603375 0.047784 0.0506634 0.0603375 0.0639737 0.0563049 0.0603375 0.0683694 0.0732686 0.0603375 0.0639737 0.0732686 0.0776848 0.0572 0.0630046 0.0676128 0.0744814 0.0630046 0.0683694 0.0744814 0.0808294 0.0676128 0.0744814 0.0783743 0.0863466 0.0744814 0.0808294 0.0863466 0.0937143 0.0683694 0.0732686 0.0808294 0.0866252 0.0732686 0.0776848 0.0866252 0.0918474 0.0808294 0.0866252 0.0937143 0.100439 0.0866252 0.0918474 0.100439 0.106496 0.0506634 0.0532252 0.0639737 0.0672075 0.0532252 0.0554708 0.0672075 0.0700404 0.0639737 0.0672075 0.0776848 0.0816102 0.0672075 0.0700404 0.0816102 0.0850463 0.0554708 0.0574076 0.0700404 0.0724819 0.0574076 0.059049 0.0724819 0.0745486 0.0700404 0.0724819 0.0850463 0.0880046 0.0724819 0.0745486 0.0880046 0.0905057 0.0776848 0.0816102 0.0918474 0.0964863 0.0816102 0.0850463 0.0964863 0.100543 0.0918474 0.0964863 0.106496 0.111871 0.0964863 0.100543 0.111871 0.116568 0.0850463 0.0880046 0.100543 0.104032 0.0880046 0.0905057 0.104032 0.106977 0.100543 0.104032 0.116568 0.120601 0.104032 0.106977 0.120601 0.124 0.059049 0.0604136 0.0745486 0.0762646 0.0604136 0.061525 0.0762646 0.0776595 0.0745486 0.0762646 0.0905057 0.0925786 0.0762646 0.0776595 0.0925786 0.0942602 0.061525 0.0624105 0.0776595 0.0787685 0.0624105 0.0631008 0.0787685 0.0796304 0.0776595 0.0787685 0.0942602 0.0955932 0.0787685 0.0796304 0.0955932 0.0966252 0.0905057 0.0925786 0.106977 0.109413 0.0925786 0.0942602 0.109413 0.111384 0.10