# vtk DataFile Version 3.0
#This file was generated by the deal.II library on 2012/5/30 at 15: 8:38
ASCII
DATASET UNSTRUCTURED_GRID

POINTS 23040 double
0 0 0
0.25 0 0
0 0.25 0
0.25 0.25 0
0.25 0 0
0.5 0 0
0.25 0.25 0
0.5 0.25 0
0 0.25 0
0.25 0.25 0
0 0.5 0
0.25 0.5 0
0.25 0.25 0
0.5 0.25 0
0.25 0.5 0
0.5 0.5 0
0.5 0 0
0.75 0 0
0.5 0.25 0
0.75 0.25 0
0.75 0 0
1 0 0
0.75 0.25 0
1 0.25 0
0.5 0.25 0
0.75 0.25 0
0.5 0.5 0
0.75 0.5 0
0.75 0.25 0
1 0.25 0
0.75 0.5 0
1 0.5 0
0 0.5 0
0.25 0.5 0
0 0.75 0
0.25 0.75 0
0.25 0.5 0
0.5 0.5 0
0.25 0.75 0
0.5 0.75 0
0 0.75 0
0.25 0.75 0
0 1 0
0.25 1 0
0.25 0.75 0
0.5 0.75 0
0.25 1 0
0.5 1 0
0.5 0.5 0
0.75 0.5 0
0.5 0.75 0
0.75 0.75 0
0.75 0.5 0
1 0.5 0
0.75 0.75 0
1 0.75 0
0.5 0.75 0
0.75 0.75 0
0.5 1 0
0.75 1 0
0.75 0.75 0
1 0.75 0
0.75 1 0
1 1 0
1 0 0
1.25 0 0
1 0.25 0
1.25 0.25 0
1.25 0 0
1.5 0 0
1.25 0.25 0
1.5 0.25 0
1 0.25 0
1.25 0.25 0
1 0.5 0
1.25 0.5 0
1.25 0.25 0
1.5 0.25 0
1.25 0.5 0
1.5 0.5 0
1.5 0 0
1.75 0 0
1.5 0.25 0
1.75 0.25 0
1.75 0 0
2 0 0
1.75 0.25 0
2 0.25 0
1.5 0.25 0
1.75 0.25 0
1.5 0.5 0
1.75 0.5 0
1.75 0.25 0
2 0.25 0
1.75 0.5 0
2 0.5 0
1 0.5 0
1.25 0.5 0
1 0.75 0
1.25 0.75 0
1.25 0.5 0
1.5 0.5 0
1.25 0.75 0
1.5 0.75 0
1 0.75 0
1.25 0.75 0
1 1 0
1.25 1 0
1.25 0.75 0
1.5 0.75 0
1.25 1 0
1.5 1 0
1.5 0.5 0
1.75 0.5 0
1.5 0.75 0
1.75 0.75 0
1.75 0.5 0
2 0.5 0
1.75 0.75 0
2 0.75 0
1.5 0.75 0
1.75 0.75 0
1.5 1 0
1.75 1 0
1.75 0.75 0
2 0.75 0
1.75 1 0
2 1 0
2 0 0
2.25 0 0
2 0.25 0
2.25 0.25 0
2.25 0 0
2.5 0 0
2.25 0.25 0
2.5 0.25 0
2 0.25 0
2.25 0.25 0
2 0.5 0
2.25 0.5 0
2.25 0.25 0
2.5 0.25 0
2.25 0.5 0
2.5 0.5 0
2.5 0 0
2.75 0 0
2.5 0.25 0
2.75 0.25 0
2.75 0 0
3 0 0
2.75 0.25 0
3 0.25 0
2.5 0.25 0
2.75 0.25 0
2.5 0.5 0
2.75 0.5 0
2.75 0.25 0
3 0.25 0
2.75 0.5 0
3 0.5 0
2 0.5 0
2.25 0.5 0
2 0.75 0
2.25 0.75 0
2.25 0.5 0
2.5 0.5 0
2.25 0.75 0
2.5 0.75 0
2 0.75 0
2.25 0.75 0
2 1 0
2.25 1 0
2.25 0.75 0
2.5 0.75 0
2.25 1 0
2.5 1 0
2.5 0.5 0
2.75 0.5 0
2.5 0.75 0
2.75 0.75 0
2.75 0.5 0
3 0.5 0
2.75 0.75 0
3 0.75 0
2.5 0.75 0
2.75 0.75 0
2.5 1 0
2.75 1 0
2.75 0.75 0
3 0.75 0
2.75 1 0
3 1 0
3 0 0
3.25 0 0
3 0.25 0
3.25 0.25 0
3.25 0 0
3.5 0 0
3.25 0.25 0
3.5 0.25 0
3 0.25 0
3.25 0.25 0
3 0.5 0
3.25 0.5 0
3.25 0.25 0
3.5 0.25 0
3.25 0.5 0
3.5 0.5 0
3.5 0 0
3.75 0 0
3.5 0.25 0
3.75 0.25 0
3.75 0 0
4 0 0
3.75 0.25 0
4 0.25 0
3.5 0.25 0
3.75 0.25 0
3.5 0.5 0
3.75 0.5 0
3.75 0.25 0
4 0.25 0
3.75 0.5 0
4 0.5 0
3 0.5 0
3.25 0.5 0
3 0.75 0
3.25 0.75 0
3.25 0.5 0
3.5 0.5 0
3.25 0.75 0
3.5 0.75 0
3 0.75 0
3.25 0.75 0
3 1 0
3.25 1 0
3.25 0.75 0
3.5 0.75 0
3.25 1 0
3.5 1 0
3.5 0.5 0
3.75 0.5 0
3.5 0.75 0
3.75 0.75 0
3.75 0.5 0
4 0.5 0
3.75 0.75 0
4 0.75 0
3.5 0.75 0
3.75 0.75 0
3.5 1 0
3.75 1 0
3.75 0.75 0
4 0.75 0
3.75 1 0
4 1 0
4 0 0
4.25 0 0
4 0.25 0
4.25 0.25 0
4.25 0 0
4.5 0 0
4.25 0.25 0
4.5 0.25 0
4 0.25 0
4.25 0.25 0
4 0.5 0
4.25 0.5 0
4.25 0.25 0
4.5 0.25 0
4.25 0.5 0
4.5 0.5 0
4.5 0 0
4.75 0 0
4.5 0.25 0
4.75 0.25 0
4.75 0 0
5 0 0
4.75 0.25 0
5 0.25 0
4.5 0.25 0
4.75 0.25 0
4.5 0.5 0
4.75 0.5 0
4.75 0.25 0
5 0.25 0
4.75 0.5 0
5 0.5 0
4 0.5 0
4.25 0.5 0
4 0.75 0
4.25 0.75 0
4.25 0.5 0
4.5 0.5 0
4.25 0.75 0
4.5 0.75 0
4 0.75 0
4.25 0.75 0
4 1 0
4.25 1 0
4.25 0.75 0
4.5 0.75 0
4.25 1 0
4.5 1 0
4.5 0.5 0
4.75 0.5 0
4.5 0.75 0
4.75 0.75 0
4.75 0.5 0
5 0.5 0
4.75 0.75 0
5 0.75 0
4.5 0.75 0
4.75 0.75 0
4.5 1 0
4.75 1 0
4.75 0.75 0
5 0.75 0
4.75 1 0
5 1 0
5 0 0
5.25 0 0
5 0.25 0
5.25 0.25 0
5.25 0 0
5.5 0 0
5.25 0.25 0
5.5 0.25 0
5 0.25 0
5.25 0.25 0
5 0.5 0
5.25 0.5 0
5.25 0.25 0
5.5 0.25 0
5.25 0.5 0
5.5 0.5 0
5.5 0 0
5.75 0 0
5.5 0.25 0
5.75 0.25 0
5.75 0 0
6 0 0
5.75 0.25 0
6 0.25 0
5.5 0.25 0
5.75 0.25 0
5.5 0.5 0
5.75 0.5 0
5.75 0.25 0
6 0.25 0
5.75 0.5 0
6 0.5 0
5 0.5 0
5.25 0.5 0
5 0.75 0
5.25 0.75 0
5.25 0.5 0
5.5 0.5 0
5.25 0.75 0
5.5 0.75 0
5 0.75 0
5.25 0.75 0
5 1 0
5.25 1 0
5.25 0.75 0
5.5 0.75 0
5.25 1 0
5.5 1 0
5.5 0.5 0
5.75 0.5 0
5.5 0.75 0
5.75 0.75 0
5.75 0.5 0
6 0.5 0
5.75 0.75 0
6 0.75 0
5.5 0.75 0
5.75 0.75 0
5.5 1 0
5.75 1 0
5.75 0.75 0
6 0.75 0
5.75 1 0
6 1 0
6 0 0
6.25 0 0
6 0.25 0
6.25 0.25 0
6.25 0 0
6.5 0 0
6.25 0.25 0
6.5 0.25 0
6 0.25 0
6.25 0.25 0
6 0.5 0
6.25 0.5 0
6.25 0.25 0
6.5 0.25 0
6.25 0.5 0
6.5 0.5 0
6.5 0 0
6.75 0 0
6.5 0.25 0
6.75 0.25 0
6.75 0 0
7 0 0
6.75 0.25 0
7 0.25 0
6.5 0.25 0
6.75 0.25 0
6.5 0.5 0
6.75 0.5 0
6.75 0.25 0
7 0.25 0
6.75 0.5 0
7 0.5 0
6 0.5 0
6.25 0.5 0
6 0.75 0
6.25 0.75 0
6.25 0.5 0
6.5 0.5 0
6.25 0.75 0
6.5 0.75 0
6 0.75 0
6.25 0.75 0
6 1 0
6.25 1 0
6.25 0.75 0
6.5 0.75 0
6.25 1 0
6.5 1 0
6.5 0.5 0
6.75 0.5 0
6.5 0.75 0
6.75 0.75 0
6.75 0.5 0
7 0.5 0
6.75 0.75 0
7 0.75 0
6.5 0.75 0
6.75 0.75 0
6.5 1 0
6.75 1 0
6.75 0.75 0
7 0.75 0
6.75 1 0
7 1 0
7 0 0
7.25 0 0
7 0.25 0
7.25 0.25 0
7.25 0 0
7.5 0 0
7.25 0.25 0
7.5 0.25 0
7 0.25 0
7.25 0.25 0
7 0.5 0
7.25 0.5 0
7.25 0.25 0
7.5 0.25 0
7.25 0.5 0
7.5 0.5 0
7.5 0 0
7.75 0 0
7.5 0.25 0
7.75 0.25 0
7.75 0 0
8 0 0
7.75 0.25 0
8 0.25 0
7.5 0.25 0
7.75 0.25 0
7.5 0.5 0
7.75 0.5 0
7.75 0.25 0
8 0.25 0
7.75 0.5 0
8 0.5 0
7 0.5 0
7.25 0.5 0
7 0.75 0
7.25 0.75 0
7.25 0.5 0
7.5 0.5 0
7.25 0.75 0
7.5 0.75 0
7 0.75 0
7.25 0.75 0
7 1 0
7.25 1 0
7.25 0.75 0
7.5 0.75 0
7.25 1 0
7.5 1 0
7.5 0.5 0
7.75 0.5 0
7.5 0.75 0
7.75 0.75 0
7.75 0.5 0
8 0.5 0
7.75 0.75 0
8 0.75 0
7.5 0.75 0
7.75 0.75 0
7.5 1 0
7.75 1 0
7.75 0.75 0
8 0.75 0
7.75 1 0
8 1 0
8 0 0
8.25 0 0
8 0.25 0
8.25 0.25 0
8.25 0 0
8.5 0 0
8.25 0.25 0
8.5 0.25 0
8 0.25 0
8.25 0.25 0
8 0.5 0
8.25 0.5 0
8.25 0.25 0
8.5 0.25 0
8.25 0.5 0
8.5 0.5 0
8.5 0 0
8.75 0 0
8.5 0.25 0
8.75 0.25 0
8.75 0 0
9 0 0
8.75 0.25 0
9 0.25 0
8.5 0.25 0
8.75 0.25 0
8.5 0.5 0
8.75 0.5 0
8.75 0.25 0
9 0.25 0
8.75 0.5 0
9 0.5 0
8 0.5 0
8.25 0.5 0
8 0.75 0
8.25 0.75 0
8.25 0.5 0
8.5 0.5 0
8.25 0.75 0
8.5 0.75 0
8 0.75 0
8.25 0.75 0
8 1 0
8.25 1 0
8.25 0.75 0
8.5 0.75 0
8.25 1 0
8.5 1 0
8.5 0.5 0
8.75 0.5 0
8.5 0.75 0
8.75 0.75 0
8.75 0.5 0
9 0.5 0
8.75 0.75 0
9 0.75 0
8.5 0.75 0
8.75 0.75 0
8.5 1 0
8.75 1 0
8.75 0.75 0
9 0.75 0
8.75 1 0
9 1 0
9 0 0
9.25 0 0
9 0.25 0
9.25 0.25 0
9.25 0 0
9.5 0 0
9.25 0.25 0
9.5 0.25 0
9 0.25 0
9.25 0.25 0
9 0.5 0
9.25 0.5 0
9.25 0.25 0
9.5 0.25 0
9.25 0.5 0
9.5 0.5 0
9.5 0 0
9.75 0 0
9.5 0.25 0
9.75 0.25 0
9.75 0 0
10 0 0
9.75 0.25 0
10 0.25 0
9.5 0.25 0
9.75 0.25 0
9.5 0.5 0
9.75 0.5 0
9.75 0.25 0
10 0.25 0
9.75 0.5 0
10 0.5 0
9 0.5 0
9.25 0.5 0
9 0.75 0
9.25 0.75 0
9.25 0.5 0
9.5 0.5 0
9.25 0.75 0
9.5 0.75 0
9 0.75 0
9.25 0.75 0
9 1 0
9.25 1 0
9.25 0.75 0
9.5 0.75 0
9.25 1 0
9.5 1 0
9.5 0.5 0
9.75 0.5 0
9.5 0.75 0
9.75 0.75 0
9.75 0.5 0
10 0.5 0
9.75 0.75 0
10 0.75 0
9.5 0.75 0
9.75 0.75 0
9.5 1 0
9.75 1 0
9.75 0.75 0
10 0.75 0
9.75 1 0
10 1 0
10 0 0
10.25 0 0
10 0.25 0
10.25 0.25 0
10.25 0 0
10.5 0 0
10.25 0.25 0
10.5 0.25 0
10 0.25 0
10.25 0.25 0
10 0.5 0
10.25 0.5 0
10.25 0.25 0
10.5 0.25 0
10.25 0.5 0
10.5 0.5 0
10.5 0 0
10.75 0 0
10.5 0.25 0
10.75 0.25 0
10.75 0 0
11 0 0
10.75 0.25 0
11 0.25 0
10.5 0.25 0
10.75 0.25 0
10.5 0.5 0
10.75 0.5 0
10.75 0.25 0
11 0.25 0
10.75 0.5 0
11 0.5 0
10 0.5 0
10.25 0.5 0
10 0.75 0
10.25 0.75 0
10.25 0.5 0
10.5 0.5 0
10.25 0.75 0
10.5 0.75 0
10 0.75 0
10.25 0.75 0
10 1 0
10.25 1 0
10.25 0.75 0
10.5 0.75 0
10.25 1 0
10.5 1 0
10.5 0.5 0
10.75 0.5 0
10.5 0.75 0
10.75 0.75 0
10.75 0.5 0
11 0.5 0
10.75 0.75 0
11 0.75 0
10.5 0.75 0
10.75 0.75 0
10.5 1 0
10.75 1 0
10.75 0.75 0
11 0.75 0
10.75 1 0
11 1 0
11 0 0
11.25 0 0
11 0.25 0
11.25 0.25 0
11.25 0 0
11.5 0 0
11.25 0.25 0
11.5 0.25 0
11 0.25 0
11.25 0.25 0
11 0.5 0
11.25 0.5 0
11.25 0.25 0
11.5 0.25 0
11.25 0.5 0
11.5 0.5 0
11.5 0 0
11.75 0 0
11.5 0.25 0
11.75 0.25 0
11.75 0 0
12 0 0
11.75 0.25 0
12 0.25 0
11.5 0.25 0
11.75 0.25 0
11.5 0.5 0
11.75 0.5 0
11.75 0.25 0
12 0.25 0
11.75 0.5 0
12 0.5 0
11 0.5 0
11.25 0.5 0
11 0.75 0
11.25 0.75 0
11.25 0.5 0
11.5 0.5 0
11.25 0.75 0
11.5 0.75 0
11 0.75 0
11.25 0.75 0
11 1 0
11.25 1 0
11.25 0.75 0
11.5 0.75 0
11.25 1 0
11.5 1 0
11.5 0.5 0
11.75 0.5 0
11.5 0.75 0
11.75 0.75 0
11.75 0.5 0
12 0.5 0
11.75 0.75 0
12 0.75 0
11.5 0.75 0
11.75 0.75 0
11.5 1 0
11.75 1 0
11.75 0.75 0
12 0.75 0
11.75 1 0
12 1 0
12 0 0
12.25 0 0
12 0.25 0
12.25 0.25 0
12.25 0 0
12.5 0 0
12.25 0.25 0
12.5 0.25 0
12 0.25 0
12.25 0.25 0
12 0.5 0
12.25 0.5 0
12.25 0.25 0
12.5 0.25 0
12.25 0.5 0
12.5 0.5 0
12.5 0 0
12.75 0 0
12.5 0.25 0
12.75 0.25 0
12.75 0 0
13 0 0
12.75 0.25 0
13 0.25 0
12.5 0.25 0
12.75 0.25 0
12.5 0.5 0
12.75 0.5 0
12.75 0.25 0
13 0.25 0
12.75 0.5 0
13 0.5 0
12 0.5 0
12.25 0.5 0
12 0.75 0
12.25 0.75 0
12.25 0.5 0
12.5 0.5 0
12.25 0.75 0
12.5 0.75 0
12 0.75 0
12.25 0.75 0
12 1 0
12.25 1 0
12.25 0.75 0
12.5 0.75 0
12.25 1 0
12.5 1 0
12.5 0.5 0
12.75 0.5 0
12.5 0.75 0
12.75 0.75 0
12.75 0.5 0
13 0.5 0
12.75 0.75 0
13 0.75 0
12.5 0.75 0
12.75 0.75 0
12.5 1 0
12.75 1 0
12.75 0.75 0
13 0.75 0
12.75 1 0
13 1 0
13 0 0
13.25 0 0
13 0.25 0
13.25 0.25 0
13.25 0 0
13.5 0 0
13.25 0.25 0
13.5 0.25 0
13 0.25 0
13.25 0.25 0
13 0.5 0
13.25 0.5 0
13.25 0.25 0
13.5 0.25 0
13.25 0.5 0
13.5 0.5 0
13.5 0 0
13.75 0 0
13.5 0.25 0
13.75 0.25 0
13.75 0 0
14 0 0
13.75 0.25 0
14 0.25 0
13.5 0.25 0
13.75 0.25 0
13.5 0.5 0
13.75 0.5 0
13.75 0.25 0
14 0.25 0
13.75 0.5 0
14 0.5 0
13 0.5 0
13.25 0.5 0
13 0.75 0
13.25 0.75 0
13.25 0.5 0
13.5 0.5 0
13.25 0.75 0
13.5 0.75 0
13 0.75 0
13.25 0.75 0
13 1 0
13.25 1 0
13.25 0.75 0
13.5 0.75 0
13.25 1 0
13.5 1 0
13.5 0.5 0
13.75 0.5 0
13.5 0.75 0
13.75 0.75 0
13.75 0.5 0
14 0.5 0
13.75 0.75 0
14 0.75 0
13.5 0.75 0
13.75 0.75 0
13.5 1 0
13.75 1 0
13.75 0.75 0
14 0.75 0
13.75 1 0
14 1 0
14 0 0
14.25 0 0
14 0.25 0
14.25 0.25 0
14.25 0 0
14.5 0 0
14.25 0.25 0
14.5 0.25 0
14 0.25 0
14.25 0.25 0
14 0.5 0
14.25 0.5 0
14.25 0.25 0
14.5 0.25 0
14.25 0.5 0
14.5 0.5 0
14.5 0 0
14.75 0 0
14.5 0.25 0
14.75 0.25 0
14.75 0 0
15 0 0
14.75 0.25 0
15 0.25 0
14.5 0.25 0
14.75 0.25 0
14.5 0.5 0
14.75 0.5 0
14.75 0.25 0
15 0.25 0
14.75 0.5 0
15 0.5 0
14 0.5 0
14.25 0.5 0
14 0.75 0
14.25 0.75 0
14.25 0.5 0
14.5 0.5 0
14.25 0.75 0
14.5 0.75 0
14 0.75 0
14.25 0.75 0
14 1 0
14.25 1 0
14.25 0.75 0
14.5 0.75 0
14.25 1 0
14.5 1 0
14.5 0.5 0
14.75 0.5 0
14.5 0.75 0
14.75 0.75 0
14.75 0.5 0
15 0.5 0
14.75 0.75 0
15 0.75 0
[...]
POINT_DATA 23040
SCALARS State_OptProblem double 1
LOOKUP_TABLE default
0 0 0 2.75336e-05 0 0 2.75336e-05 5.37001e-05 0 2.75336e-05 0 4.74616e-05 2.75336e-05 5.37001e-05 4.74616e-05 9.11235e-05 0 0 5.37001e-05 7.73656e-05 0 0 7.73656e-05 9.77789e-05 5.37001e-05 7.73656e-05 9.11235e-05 0.000127835 7.73656e-05 9.77789e-05 0.000127835 0.000155536 0 4.74616e-05 0 5.13852e-05 4.74616e-05 9.11235e-05 5.13852e-05 9.56846e-05 0 5.13852e-05 0 3.2179e-05 5.13852e-05 9.56846e-05 3.2179e-05 5.55177e-05 9.11235e-05 0.000127835 9.56846e-05 0.000127047 0.000127835 0.000155536 0.000127047 0.000141712 9.56846e-05 0.000127047 5.55177e-05 6.27646e-05 0.000127047 0.000141712 6.27646e-05 4.93735e-05 0 0 9.77789e-05 0.000114594 0 0 0.000114594 0.000127788 9.77789e-05 0.000114594 0.000155536 0.000173375 0.000114594 0.000127788 0.000173375 0.000181559 0 0 0.000127788 0.000137548 0 0 0.000137548 0.000144174 0.000127788 0.000137548 0.000181559 0.000181077 0.000137548 0.000144174 0.000181077 0.00017345 0.000155536 0.000173375 0.000141712 0.000138305 0.000173375 0.000181559 0.000138305 0.000117611 0.000141712 0.000138305 4.93735e-05 1.39036e-05 0.000138305 0.000117611 1.39036e-05 -4.22151e-05 0.000181559 0.000181077 0.000117611 8.21101e-05 0.000181077 0.00017345 8.21101e-05 3.54991e-05 0.000117611 8.21101e-05 -4.22151e-05 -0.000115253 8.21101e-05 3.54991e-05 -0.000115253 -0.000199778 0 0 0.000144174 0.000148053 0 0 0.000148053 0.000149655 0.000144174 0.000148053 0.00017345 0.000160586 0.000148053 0.000149655 0.000160586 0.000144683 0 0 0.000149655 0.000149507 0 0 0.000149507 0.00014811 0.000149655 0.000149507 0.000144683 0.000128077 0.000149507 0.00014811 0.000128077 0.000112942 0.00017345 0.000160586 3.54991e-05 -1.7643e-05 0.000160586 0.000144683 -1.7643e-05 -7.21379e-05 3.54991e-05 -1.7643e-05 -0.000199778 -0.000289152 -1.7643e-05 -7.21379e-05 -0.000289152 -0.000376005 0.000144683 0.000128077 -7.21379e-05 -0.000122603 0.000128077 0.000112942 -0.000122603 -0.000164075 -7.21379e-05 -0.000122603 -0.000376005 -0.00045287 -0.000122603 -0.000164075 -0.00045287 -0.000513072 0 0 0.00014811 0.000145789 0 0 0.000145789 0.000142583 0.00014811 0.000145789 0.000112942 0.000100888 0.000145789 0.000142583 0.000100888 9.26134e-05 0 0 0.000142583 0.000138229 0 0 0.000138229 0.000132328 0.000142583 0.000138229 9.26134e-05 8.7827e-05 0.000138229 0.000132328 8.7827e-05 8.55617e-05 0.000112942 0.000100888 -0.000164075 -0.000192795 0.000100888 9.26134e-05 -0.000192795 -0.000206864 -0.000164075 -0.000192795 -0.000513072 -0.000551734 -0.000192795 -0.000206864 -0.000551734 -0.000566543 9.26134e-05 8.7827e-05 -0.000206864 -0.000206441 8.7827e-05 8.55617e-05 -0.000206441 -0.000193269 -0.000206864 -0.000206441 -0.000566543 -0.000557894 -0.000206441 -0.000193269 -0.000557894 -0.000528214 0 0 0.000132328 0.000124651 0 0 0.000124651 0.000115476 0.000132328 0.000124651 8.55617e-05 8.48297e-05 0.000124651 0.000115476 8.48297e-05 8.5352e-05 0 0 0.000115476 0.000105783 0 0 0.000105783 9.71663e-05 0.000115476 0.000105783 8.5352e-05 8.79981e-05 0.000105783 9.71663e-05 8.79981e-05 9.46331e-05 8.55617e-05 8.48297e-05 -0.000193269 -0.000169652 8.48297e-05 8.5352e-05 -0.000169652 -0.000137297 -0.000193269 -0.000169652 -0.000528214 -0.000480674 -0.000169652 -0.000137297 -0.000480674 -0.000417839 8.5352e-05 8.79981e-05 -0.000137297 -9.6622e-05 8.79981e-05 9.46331e-05 -9.6622e-05 -4.69893e-05 -0.000137297 -9.6622e-05 -0.000417839 -0.000340978 -9.6622e-05 -4.69893e-05 -0.000340978 -0.000250538 0 0 9.71663e-05 9.14149e-05 0 0 9.14149e-05 8.98707e-05 9.71663e-05 9.14149e-05 9.46331e-05 0.000107297 9.14149e-05 8.98707e-05 0.000107297 0.000126946 0 0 8.98707e-05 9.27726e-05 0 0 9.27726e-05 9.88746e-05 8.98707e-05 9.27726e-05 0.000126946 0.000152245 9.27726e-05 9.88746e-05 0.000152245 0.000178989 9.46331e-05 0.000107297 -4.69893e-05 1.20669e-05 0.000107297 0.000126946 1.20669e-05 7.90204e-05 -4.69893e-05 1.20669e-05 -0.000250538 -0.000147791 1.20669e-05 7.90204e-05 -0.000147791 -3.70647e-05 0.000126946 0.000152245 7.90204e-05 0.000148749 0.000152245 0.000178989 0.000148749 0.000212051 7.90204e-05 0.000148749 -3.70647e-05 7.25026e-05 0.000148749 0.000212051 7.25026e-05 0.000166813 0 0 9.88746e-05 0.000105569 0 0 0.000105569 0.000109613 9.88746e-05 0.000105569 0.000178989 0.000200619 0.000105569 0.000109613 0.000200619 0.000209948 0 0 0.000109613 0.00010833 0 0 0.00010833 0.000100915 0.000109613 0.00010833 0.000209948 0.000201764 0.00010833 0.000100915 0.000201764 0.000175466 0.000178989 0.000200619 0.000212051 0.000256922 0.000200619 0.000209948 0.000256922 0.000271661 0.000212051 0.000256922 0.000166813 0.000229021 0.000256922 0.000271661 0.000229021 0.000244055 0.000209948 0.000201764 0.000271661 0.000249102 0.000201764 0.000175466 0.000249102 0.000190537 0.000271661 0.000249102 0.000244055 0.000204358 0.000249102 0.000190537 0.000204358 0.000114805 0 0 0.000100915 8.92928e-05 0 0 8.92928e-05 7.79068e-05 0.000100915 8.92928e-05 0.000175466 0.000136572 8.92928e-05 7.79068e-05 0.000136572 9.59202e-05 0 0 7.79068e-05 7.20967e-05 0 0 7.20967e-05 7.5252e-05 7.79068e-05 7.20967e-05 9.59202e-05 6.59622e-05 7.20967e-05 7.5252e-05 6.59622e-05 5.47552e-05 0.000175466 0.000136572 0.000190537 0.0001075 0.000136572 9.59202e-05 0.0001075 1.97081e-05 0.000190537 0.0001075 0.000114805 -5.738e-06 0.0001075 1.97081e-05 -5.738e-06 -0.000128338 9.59202e-05 6.59622e-05 1.97081e-05 -5.144e-05 6.59622e-05 5.47552e-05 -5.144e-05 -9.24933e-05 1.97081e-05 -5.144e-05 -0.000128338 -0.000223861 -5.144e-05 -9.24933e-05 -0.000223861 -0.000276362 0 0 7.5252e-05 8.57692e-05 0 0 8.57692e-05 9.55848e-05 7.5252e-05 8.57692e-05 5.47552e-05 5.98928e-05 8.57692e-05 9.55848e-05 5.98928e-05 6.60465e-05 0 0 9.55848e-05 9.22128e-05 0 0 9.22128e-05 6.5196e-05 9.55848e-05 9.22128e-05 6.60465e-05 4.98604e-05 9.22128e-05 6.5196e-05 4.98604e-05 -6.42648e-06 5.47552e-05 5.98928e-05 -9.24933e-05 -0.000106842 5.98928e-05 6.60465e-05 -0.000106842 -0.000117131 -9.24933e-05 -0.000106842 -0.000276362 -0.000294163 -0.000106842 -0.000117131 -0.000294163 -0.000310536 6.60465e-05 4.98604e-05 -0.000117131 -0.000155847 4.98604e-05 -6.42648e-06 -0.000155847 -0.000243112 -0.000117131 -0.000155847 -0.000310536 -0.000367371 -0.000155847 -0.000243112 -0.000367371 -0.000482437 0 0 6.5196e-05 1.55279e-05 0 0 1.55279e-05 -3.64106e-05 6.5196e-05 1.55279e-05 -6.42648e-06 -9.63404e-05 1.55279e-05 -3.64106e-05 -9.63404e-05 -0.000175419 0 0 -3.64106e-05 -5.07849e-05 0 0 -5.07849e-05 1.88872e-05 -3.64106e-05 -5.07849e-05 -0.000175419 -0.000165702 -5.07849e-05 1.88872e-05 -0.000165702 1.22951e-05 -6.42648e-06 -9.63404e-05 -0.000243112 -0.000359245 -9.63404e-05 -0.000175419 -0.000359245 -0.000429323 -0.000243112 -0.000359245 -0.000482437 -0.000613818 -0.000359245 -0.000429323 -0.000613818 -0.000648661 -0.000175419 -0.000165702 -0.000429323 -0.000341162 -0.000165702 1.22951e-05 -0.000341162 -8.44085e-06 -0.000429323 -0.000341162 -0.000648661 -0.000447044 -0.000341162 -8.44085e-06 -0.000447044 4.7701e-05 0 0 1.88872e-05 0.000200942 0 0 0.000200942 0.000478427 1.88872e-05 0.000200942 1.22951e-05 0.000384946 0.000200942 0.000478427 0.000384946 0.000872594 0 0 0.000478427 0.000775798 0 0 0.000775798 0.000973877 0.000478427 0.000775798 0.000872594 0.0012751 0.000775798 0.000973877 0.0012751 0.00132343 1.22951e-05 0.000384946 -8.44085e-06 0.000536337 0.000384946 0.000872594 0.000536337 0.00106948 -8.44085e-06 0.000536337 4.7701e-05 0.000668682 0.000536337 0.00106948 0.000668682 0.000950936 0.000872594 0.0012751 0.00106948 0.00119151 0.0012751 0.00132343 0.00119151 0.000465833 0.00106948 0.00119151 0.000950936 0.000239856 0.00119151 0.000465833 0.000239856 -0.00198134 0 0 0.000973877 0.000954927 0 0 0.000954927 0.000661327 0.000973877 0.000954927 0.00132343 0.000791255 0.000954927 0.000661327 0.000791255 -0.000380435 0 0 0.000661327 0.000138308 0 0 0.000138308 -0.000466242 0.000661327 0.000138308 -0.000380435 -0.0020122 0.000138308 -0.000466242 -0.0020122 -0.00371514 0.00132343 0.000791255 0.000465833 -0.00136395 0.000791255 -0.000380435 -0.00136395 -0.00419652 0.000465833 -0.00136395 -0.00198134 -0.00570148 -0.00136395 -0.00419652 -0.00570148 -0.0102403 -0.000380435 -0.0020122 -0.00419652 -0.00755048 -0.0020122 -0.00371514 -0.00755048 -0.010716 -0.00419652 -0.00755048 -0.0102403 -0.014551 -0.00755048 -0.010716 -0.014551 -0.0177887 0 0 -0.000466242 -0.000952218 0 0 -0.000952218 -0.00114838 -0.000466242 -0.000952218 -0.00371514 -0.00501712 -0.000952218 -0.00114838 -0.00501712 -0.00553443 0 0 -0.00114838 -0.000986026 0 0 -0.000986026 -0.000528794 -0.00114838 -0.000986026 -0.00553443 -0.00511576 -0.000986026 -0.000528794 -0.00511576 -0.00389848 -0.00371514 -0.00501712 -0.010716 -0.0129894 -0.00501712 -0.00553443 -0.0129894 -0.0138725 -0.010716 -0.0129894 -0.0177887 -0.0196736 -0.0129894 -0.0138725 -0.0196736 -0.0203463 -0.00553443 -0.00511576 -0.0138725 -0.0131798 -0.00511576 -0.00389848 -0.0131798 -0.0110701 -0.0138725 -0.0131798 -0.0203463 -0.0199205 -0.0131798 -0.0110701 -0.0199205 -0.0182452 0 0 -0.000528794 5.64827e-05 0 0 5.64827e-05 0.000572875 -0.000528794 5.64827e-05 -0.00389848 -0.00225449 5.64827e-05 0.000572875 -0.00225449 -0.000647972 0 0 0.000572875 0.000874061 0 0 0.000874061 0.000914605 0.000572875 0.000874061 -0.000647972 0.000535311 0.000874061 0.000914605 0.000535311 0.00111416 -0.00389848 -0.00225449 -0.0110701 -0.00801964 -0.00225449 -0.000647972 -0.00801964 -0.00471851 -0.0110701 -0.00801964 -0.0182452 -0.0151507 -0.00801964 -0.00471851 -0.0151507 -0.010902 -0.000647972 0.000535311 -0.00471851 -0.00187317 0.000535311 0.00111416 -0.00187317 2.89836e-05 -0.00471851 -0.00187317 -0.010902 -0.00634436 -0.00187317 2.89836e-05 -0.00634436 -0.00253855 0 0 0.000914605 0.000750229 0 0 0.000750229 0.00049536 0.000914605 0.000750229 0.00111416 0.00114162 0.000750229 0.00049536 0.00114162 0.000835012 0 0 0.00049536 0.000264871 0 0 0.000264871 0.00012949 0.00049536 0.000264871 0.000835012 0.00045268 0.000264871 0.00012949 0.00045268 0.000183609 0.00111416 0.00114162 2.89836e-05 0.000873578 0.00114162 0.000835012 0.000873578 0.000899979 2.89836e-05 0.000873578 -0.00253855 -0.000186275 0.000873578 0.000899979 -0.000186275 0.000678229 0.000835012 0.00045268 0.000899979 0.000526777 0.00045268 0.000183609 0.000526777 0.000136509 0.000899979 0.000526777 0.000678229 0.000551805 0.000526777 0.000136509 0.000551805 7.43955e-05 0 0 0.00012949 0.000101352 0 0 0.000101352 0.000147798 0.00012949 0.000101352 0.000183609 9.68343e-05 0.000101352 0.000147798 9.68343e-05 0.000156687 0 0 0.000147798 0.000219001 0 0 0.000219001 0.000273199 0.000147798 0.000219001 0.000156687 0.000276424 0.000219001 0.000273199 0.000276424 0.000373623 0.000183609 9.68343e-05 0.000136509 -6.19998e-05 9.68343e-05 0.000156687 -6.19998e-05 -4.87835e-05 0.000136509 -6.19998e-05 7.43955e-05 -0.000298966 -6.19998e-05 -4.87835e-05 -0.000298966 -0.000408737 0.000156687 0.000276424 -4.87835e-05 7.97557e-05 0.000276424 0.000373623 7.97557e-05 0.00020434 -4.87835e-05 7.97557e-05 -0.000408737 -0.000318581 7.97557e-05 0.00020434 -0.000318581 -0.000175918 0 0 0.000273199 0.00028986 0 0 0.00028986 0.00026981 0.000273199 0.00028986 0.000373623 0.000402924 0.00028986 0.00026981 0.000402924 0.000361149 0 0 0.00026981 0.000227205 0 0 0.000227205 0.000179681 0.00026981 0.000227205 0.000361149 0.000273701 0.000227205 0.000179681 0.000273701 0.00017531 0.000373623 0.000402924 0.00020434 0.00024713 0.000402924 0.000361149 0.00024713 0.000191242 0.00020434 0.00024713 -0.000175918 -0.000100333 0.00024713 0.000191242 -0.000100333 -0.000136662 0.000361149 0.000273701 0.000191242 6.65052e-05 0.000273701 0.00017531 6.65052e-05 -7.7967e-05 0.000191242 6.65052e-05 -0.000136662 -0.000262659 6.65052e-05 -7.7967e-05 -0.000262659 -0.00042229 0 0 0.000179681 0.000141132 0 0 0.000141132 0.000118645 0.000179681 0.000141132 0.00017531 9.49046e-05 0.000141132 0.000118645 9.49046e-05 4.84402e-05 0 0 0.000118645 0.000112897 0 0 0.000112897 0.000120334 0.000118645 0.000112897 4.84402e-05 3.87666e-05 0.000112897 0.000120334 3.87666e-05 5.94318e-05 0.00017531 9.49046e-05 -7.7967e-05 -0.000197756 9.49046e-05 4.84402e-05 -0.000197756 -0.000266085 -7.7967e-05 -0.000197756 -0.00042229 -0.000558986 -0.000197756 -0.000266085 -0.000558986 -0.000635845 4.84402e-05 3.87666e-05 -0.000266085 -0.000275997 3.87666e-05 5.94318e-05 -0.000275997 -0.000235835 -0.000266085 -0.000275997 -0.000635845 -0.00064127 -0.000275997 -0.000235835 -0.00064127 -0.000584642 0 0 0.000120334 0.000135584 0 0 0.000135584 0.00015326 0.000120334 0.000135584 5.94318e-05 9.94039e-05 0.000135584 0.00015326 9.94039e-05 0.0001469 0 0 0.00015326 0.000168929 0 0 0.000168929 0.000179473 0.00015326 0.000168929 0.0001469 0.000191768 0.000168929 0.000179473 0.000191768 0.00022664 5.94318e-05 9.94039e-05 -0.000235835 -0.000162437 9.94039e-05 0.0001469 -0.000162437 -7.49111e-05 -0.000235835 -0.000162437 -0.000584642 -0.000487714 -0.000162437 -7.49111e-05 -0.000487714 -0.000375779 0.0001469 0.000191768 -7.49111e-05 9.82647e-06 0.000191768 0.00022664 9.82647e-06 7.96306e-05 -7.49111e-05 9.82647e-06 -0.000375779 -0.000270666 9.82647e-06 7.96306e-05 -0.000270666 -0.000186365 0 0 0.000179473 0.000183121 0 0 0.000183121 0.000179359 0.000179473 0.000183121 0.00022664 0.00024727 0.000183121 0.000179359 0.00024727 0.000252389 0 0 0.000179359 0.00016879 0 0 0.00016879 0.000152911 0.000179359 0.00016879 0.000252389 0.000243203 0.00016879 0.000152911 0.000243203 0.000222622 0.00022664 0.00024727 7.96306e-05 0.000128091 0.00024727 0.000252389 0.000128091 0.000154142 7.96306e-05 0.000128091 -0.000186365 -0.000127532 0.000128091 0.000154142 -0.000127532 -9.07984e-05 0.000252389 0.000243203 0.000154142 0.000160606 0.000243203 0.000222622 0.000160606 0.000152119 0.000154142 0.000160606 -9.07984e-05 -6.83629e-05 0.000160606 0.000152119 -6.83629e-05 -5.26123e-05 0 0 0.000152911 0.000133783 0 0 0.000133783 0.000113658 0.000152911 0.000133783 0.000222622 0.000194345 0.000133783 0.000113658 0.000194345 0.00016204 0 0 0.000113658 9.46117e-05 0 0 9.46117e-05 7.83019e-05 0.000113658 9.46117e-05 0.00016204 0.000128831 9.46117e-05 7.83019e-05 0.000128831 9.72113e-05 0.000222622 0.000194345 0.000152119 0.000133078 0.000194345 0.00016204 0.000133078 0.000106349 0.000152119 0.000133078 -5.26123e-05 -4.00514e-05 0.000133078 0.000106349 -4.00514e-05 -3.29023e-05 0.00016204 0.000128831 0.000106349 7.31676e-05 0.000128831 9.72113e-05 7.31676e-05 3.42079e-05 0.000106349 7.31676e-05 -3.29023e-05 -3.76262e-05 7.31676e-05 3.42079e-05 -3.76262e-05 -6.09695e-05 0 0 7.83019e-05 6.58843e-05 0 0 6.58843e-05 5.80482e-05 7.83019e-05 6.58843e-05 9.72113e-05 6.93062e-05 6.58843e-05 5.80482e-05 6.93062e-05 4.71988e-05 0 0 5.80482e-05 5.5095e-05 0 0 5.5095e-05 5.69759e-05 5.80482e-05 5.5095e-05 4.71988e-05 3.30254e-05 5.5095e-05 5.69759e-05 3.30254e-05 2.86594e-05 9.72113e-05 6.93062e-05 3.42079e-05 -8.80708e-06 6.93062e-05 4.71988e-05 -8.80708e-06 -5.18758e-05 3.42079e-05 -8.80708e-06 -6.09695e-05 -0.00010534 -8.80708e-06 -5.18758e-05 -0.00010534 -0.000165742 4.71988e-05 3.30254e-05 -5.18758e-05 -8.86789e-05 3.30254e-05 2.86594e-05 -8.86789e-05 -0.000111996 -5.18758e-05 -8.86789e-05 -0.000165742 -0.000229894 -8.86789e-05 -0.000111996 -0.000229894 -0.000281741 0 0 5.69759e-05 6.32685e-05 0 0 6.32685e-05 7.31456e-05 5.69759e-05 6.32685e-05 2.86594e-05 3.50679e-05 6.32685e-05 7.31456e-05 3.50679e-05 5.16657e-05 0 0 7.31456e-05 8.54274e-05 0 0 8.54274e-05 9.87744e-05 7.31456e-05 8.54274e-05 5.16657e-05 7.60657e-05 8.54274e-05 9.87744e-05 7.60657e-05 0.000104482 2.86594e-05 3.50679e-05 -0.000111996 -0.000116116 3.50679e-05 5.16657e-05 -0.000116116 -9.92195e-05 -0.000111996 -0.000116116 -0.000281741 -0.00030705 -0.000116116 -9.92195e-05 -0.00030705 -0.000298808 5.16657e-05 7.60657e-05 -9.92195e-05 -6.46025e-05 7.60657e-05 0.000104482 -6.46025e-05 -2.00769e-05 -9.92195e-05 -6.46025e-05 -0.000298808 -0.00026016 -6.46025e-05 -2.00769e-05 -0.00026016 -0.000203636 0 0 9.87744e-05 0.000111995 0 0 0.000111995 0.000124341 9.87744e-05 0.000111995 0.000104482 0.000132724 0.000111995 0.000124341 0.000132724 0.000157385 0 0 0.000124341 0.000135637 0 0 0.000135637 0.000146144 0.000124341 0.000135637 0.000157385 0.000176708 0.000135637 0.000146144 0.000176708 0.000190703 0.000104482 0.000132724 -2.00769e-05 2.43507e-05 0.000132724 0.000157385 2.43507e-05 5.96049e-05 -2.00769e-05 2.43507e-05 -0.000203636 -0.00014695 2.43507e-05 5.96049e-05 -0.00014695 -0.000107034 0.000157385 0.000176708 5.96049e-05 8.01852e-05 0.000176708 0.000190703 8.01852e-05 8.52441e-05 5.96049e-05 8.01852e-05 -0.000107034 -9.46557e-05 8.01852e-05 8.52441e-05 -9.46557e-05 -0.000111656 0 0 0.000146144 0.000156181 0 0 0.000156181 0.000165693 0.000146144 0.000156181 0.000190703 0.000200466 0.000156181 0.000165693 0.000200466 0.000207059 0 0 0.000165693 0.000173977 0 0 0.000173977 0.000179754 0.000165693 0.000173977 0.000207059 0.000210539 0.000173977 0.000179754 0.000210539 0.000209673 0.000190703 0.000200466 8.52441e-05 7.77412e-05 0.000200466 0.000207059 7.77412e-05 6.22049e-05 8.52441e-05 7.77412e-05 -0.000111656 -0.000151685 7.77412e-05 6.22049e-05 -0.000151685 -0.000203857 0.000207059 0.000210539 6.22049e-05 4.22548e-05 0.000210539 0.000209673 4.22548e-05 1.90952e-05 6.22049e-05 4.22548e-05 -0.000203857 -0.000257544 4.22548e-05 1.90952e-05 -0.000257544 -0.000306204 0 0 0.000179754 0.0001816 0 0 0.0001816 0.000178561 0.000179754 0.0001816 0.000209673 0.000202511 0.0001816 0.000178561 0.000202511 0.00018759 0 0 0.000178561 0.00017069 0 0 0.00017069 0.000159238 0.000178561 0.00017069 0.00018759 0.00016514 0.00017069 0.000159238 0.00016514 0.000137701 0.000209673 0.000202511 1.90952e-05 -8.34878e-06 0.000202511 0.00018759 -8.34878e-06 -4.18297e-05 1.90952e-05 -8.34878e-06 -0.000306204 -0.000348692 -8.34878e-06 -4.18297e-05 -0.000348692 -0.000387785 0.00018759 0.00016514 -4.18297e-05 -8.16173e-05 0.00016514 0.000137701 -8.16173e-05 -0.00012494 -4.18297e-05 -8.16173e-05 -0.000387785 -0.000426924 -8.16173e-05 -0.00012494 -0.000426924 -0.000466929 0 0 0.000159238 0.000146393 0 0 0.000146393 0.000134663 0.000159238 0.000146393 0.000137701 0.000109791 0.000146393 0.000134663 0.000109791 8.67263e-05 0 0 0.000134663 0.000126137 0 0 0.000126137 0.000121906 0.000134663 0.000126137 8.67263e-05 7.30689e-05 0.000126137 0.000121906 7.30689e-05 7.13154e-05 0.000137701 0.000109791 -0.00012494 -0.000165853 0.000109791 8.67263e-05 -0.000165853 -0.000196648 -0.00012494 -0.000165853 -0.000466929 -0.000504306 -0.000165853 -0.000196648 -0.000504306 -0.000531851 8.67263e-05 7.30689e-05 -0.000196648 -0.000210167 7.30689e-05 7.13154e-05 -0.000210167 -0.000202048 -0.000196648 -0.000210167 -0.000531851 -0.000541138 -0.000210167 -0.000202048 -0.000541138 -0.000525632 0 0 0.000121906 0.000121843 0 0 0.000121843 0.000124752 0.000121906 0.000121843 7.13154e-05 8.12867e-05 0.000121843 0.000124752 8.12867e-05 0.000100344 0 0 0.000124752 0.000128784 0 0 0.000128784 0.000131908 0.000124752 0.000128784 0.000100344 0.000124211 0.000128784 0.000131908 0.000124211 0.000148003 7.13154e-05 8.12867e-05 -0.000202048 -0.000172014 8.12867e-05 0.000100344 -0.000172014 -0.000123861 -0.000202048 -0.000172014 -0.000525632 -0.000483067 -0.000172014 -0.000123861 -0.000483067 -0.000416232 0.000100344 0.000124211 -0.000123861 -6.43552e-05 0.000124211 0.000148003 -6.43552e-05 -1.63855e-06 -0.000123861 -6.43552e-05 -0.000416232 -0.000332141 -6.43552e-05 -1.63855e-06 -0.000332141 -0.000240206 0 0 0.000131908 0.000132287 0 0 0.000132287 0.000128482 0.000131908 0.000132287 0.000148003 0.000167098 0.000132287 0.000128482 0.000167098 0.000177683 0 0 0.000128482 0.000119527 0 0 0.000119527 0.000104948 0.000128482 0.000119527 0.000177683 0.000177011 0.000119527 0.000104948 0.000177011 0.000163544 0.000148003 0.000167098 -1.63855e-06 5.62526e-05 0.000167098 0.000177683 5.62526e-05 0.000102415 -1.63855e-06 5.62526e-05 -0.000240206 -0.000150253 5.62526e-05 0.000102415 -0.000150253 -7.09724e-05 0.000177683 0.000177011 0.000102415 0.000131657 0.000177011 0.000